# vtk DataFile Version 2.0
Sample rectilinear grid
ASCII
DATASET RECTILINEAR_GRID
DIMENSIONS 129 129 1
X_COORDINATES 129 float
0.000000e+00 7.812500e-03 1.562500e-02 2.343750e-02 3.125000e-02 3.906250e-02 4.687500e-02 5.468750e-02 6.250000e-02 7.031250e-02 7.812500e-02 8.593750e-02 9.375000e-02 1.015625e-01 1.093750e-01 1.171875e-01 1.250000e-01 1.328125e-01 1.406250e-01 1.484375e-01 1.562500e-01 1.640625e-01 1.718750e-01 1.796875e-01 1.875000e-01 1.953125e-01 2.031250e-01 2.109375e-01 2.187500e-01 2.265625e-01 2.343750e-01 2.421875e-01 2.500000e-01 2.578125e-01 2.656250e-01 2.734375e-01 2.812500e-01 2.890625e-01 2.968750e-01 3.046875e-01 3.125000e-01 3.203125e-01 3.281250e-01 3.359375e-01 3.437500e-01 3.515625e-01 3.593750e-01 3.671875e-01 3.750000e-01 3.828125e-01 3.906250e-01 3.984375e-01 4.062500e-01 4.140625e-01 4.218750e-01 4.296875e-01 4.375000e-01 4.453125e-01 4.531250e-01 4.609375e-01 4.687500e-01 4.765625e-01 4.843750e-01 4.921875e-01 5.000000e-01 5.078125e-01 5.156250e-01 5.234375e-01 5.312500e-01 5.390625e-01 5.468750e-01 5.546875e-01 5.625000e-01 5.703125e-01 5.781250e-01 5.859375e-01 5.937500e-01 6.015625e-01 6.093750e-01 6.171875e-01 6.250000e-01 6.328125e-01 6.406250e-01 6.484375e-01 6.562500e-01 6.640625e-01 6.718750e-01 6.796875e-01 6.875000e-01 6.953125e-01 7.031250e-01 7.109375e-01 7.187500e-01 7.265625e-01 7.343750e-01 7.421875e-01 7.500000e-01 7.578125e-01 7.656250e-01 7.734375e-01 7.812500e-01 7.890625e-01 7.968750e-01 8.046875e-01 8.125000e-01 8.203125e-01 8.281250e-01 8.359375e-01 8.437500e-01 8.515625e-01 8.593750e-01 8.671875e-01 8.750000e-01 8.828125e-01 8.906250e-01 8.984375e-01 9.062500e-01 9.140625e-01 9.218750e-01 9.296875e-01 9.375000e-01 9.453125e-01 9.531250e-01 9.609375e-01 9.687500e-01 9.765625e-01 9.843750e-01 9.921875e-01 1.000000e+00 
Y_COORDINATES 129 float
0.000000e+00 7.812500e-03 1.562500e-02 2.343750e-02 3.125000e-02 3.906250e-02 4.687500e-02 5.468750e-02 6.250000e-02 7.031250e-02 7.812500e-02 8.593750e-02 9.375000e-02 1.015625e-01 1.093750e-01 1.171875e-01 1.250000e-01 1.328125e-01 1.406250e-01 1.484375e-01 1.562500e-01 1.640625e-01 1.718750e-01 1.796875e-01 1.875000e-01 1.953125e-01 2.031250e-01 2.109375e-01 2.187500e-01 2.265625e-01 2.343750e-01 2.421875e-01 2.500000e-01 2.578125e-01 2.656250e-01 2.734375e-01 2.812500e-01 2.890625e-01 2.968750e-01 3.046875e-01 3.125000e-01 3.203125e-01 3.281250e-01 3.359375e-01 3.437500e-01 3.515625e-01 3.593750e-01 3.671875e-01 3.750000e-01 3.828125e-01 3.906250e-01 3.984375e-01 4.062500e-01 4.140625e-01 4.218750e-01 4.296875e-01 4.375000e-01 4.453125e-01 4.531250e-01 4.609375e-01 4.687500e-01 4.765625e-01 4.843750e-01 4.921875e-01 5.000000e-01 5.078125e-01 5.156250e-01 5.234375e-01 5.312500e-01 5.390625e-01 5.468750e-01 5.546875e-01 5.625000e-01 5.703125e-01 5.781250e-01 5.859375e-01 5.937500e-01 6.015625e-01 6.093750e-01 6.171875e-01 6.250000e-01 6.328125e-01 6.406250e-01 6.484375e-01 6.562500e-01 6.640625e-01 6.718750e-01 6.796875e-01 6.875000e-01 6.953125e-01 7.031250e-01 7.109375e-01 7.187500e-01 7.265625e-01 7.343750e-01 7.421875e-01 7.500000e-01 7.578125e-01 7.656250e-01 7.734375e-01 7.812500e-01 7.890625e-01 7.968750e-01 8.046875e-01 8.125000e-01 8.203125e-01 8.281250e-01 8.359375e-01 8.437500e-01 8.515625e-01 8.593750e-01 8.671875e-01 8.750000e-01 8.828125e-01 8.906250e-01 8.984375e-01 9.062500e-01 9.140625e-01 9.218750e-01 9.296875e-01 9.375000e-01 9.453125e-01 9.531250e-01 9.609375e-01 9.687500e-01 9.765625e-01 9.843750e-01 9.921875e-01 1.000000e+00 
Z_COORDINATES 1 float
0.000000e+00 
POINT_DATA 16641
SCALARS resh float
LOOKUP_TABLE default
0.000000e+00
0.000000e+00
0.000000e+00
0.000000e+00
0.000000e+00
0.000000e+00
0.000000e+00
0.000000e+00
0.000000e+00
0.000000e+00
0.000000e+00
0.000000e+00
0.000000e+00
0.000000e+00
0.000000e+00
0.000000e+00
0.000000e+00
0.000000e+00
0.000000e+00
0.000000e+00
0.000000e+00
0.000000e+00
0.000000e+00
0.000000e+00
0.000000e+00
0.000000e+00
0.000000e+00
0.000000e+00
0.000000e+00
0.000000e+00
0.000000e+00
0.000000e+00
0.000000e+00
0.000000e+00
0.000000e+00
0.000000e+00
0.000000e+00
0.000000e+00
0.000000e+00
0.000000e+00
0.000000e+00
0.000000e+00
0.000000e+00
0.000000e+00
0.000000e+00
0.000000e+00
0.000000e+00
0.000000e+00
0.000000e+00
0.000000e+00
0.000000e+00
0.000000e+00
0.000000e+00
0.000000e+00
0.000000e+00
0.000000e+00
0.000000e+00
0.000000e+00
0.000000e+00
0.000000e+00
0.000000e+00
0.000000e+00
0.000000e+00
0.000000e+00
0.000000e+00
0.000000e+00
0.000000e+00
0.000000e+00
0.000000e+00
0.000000e+00
0.000000e+00
0.000000e+00
0.000000e+00
0.000000e+00
0.000000e+00
0.000000e+00
0.000000e+00
0.000000e+00
0.000000e+00
0.000000e+00
0.000000e+00
0.000000e+00
0.000000e+00
0.000000e+00
0.000000e+00
0.000000e+00
0.000000e+00
0.000000e+00
0.000000e+00
0.000000e+00
0.000000e+00
0.000000e+00
0.000000e+00
0.000000e+00
0.000000e+00
0.000000e+00
0.000000e+00
0.000000e+00
0.000000e+00
0.000000e+00
0.000000e+00
0.000000e+00
0.000000e+00
0.000000e+00
0.000000e+00
0.000000e+00
0.000000e+00
0.000000e+00
0.000000e+00
0.000000e+00
0.000000e+00
0.000000e+00
0.000000e+00
0.000000e+00
0.000000e+00
0.000000e+00
0.000000e+00
0.000000e+00
0.000000e+00
0.000000e+00
0.000000e+00
0.000000e+00
0.000000e+00
0.000000e+00
0.000000e+00
0.000000e+00
0.000000e+00
0.000000e+00
0.000000e+00
0.000000e+00
3.074131e-15
7.680276e-15
9.289410e-15
1.566944e-14
1.596819e-14
2.426881e-14
2.294005e-14
3.336608e-14
3.059646e-14
4.311532e-14
3.842189e-14
5.310305e-14
4.688563e-14
6.427714e-14
5.649413e-14
7.719909e-14
6.829120e-14
9.386199e-14
8.313655e-14
1.146298e-13
1.021266e-13
1.405575e-13
1.240848e-13
1.707293e-13
1.508921e-13
2.058515e-13
1.795582e-13
2.431678e-13
2.114024e-13
2.847716e-13
2.456246e-13
3.293066e-13
2.843235e-13
3.804564e-13
3.265078e-13
4.359226e-13
3.743494e-13
4.966408e-13
4.212977e-13
5.579961e-13
4.734319e-13
6.208013e-13
5.186584e-13
6.783989e-13
5.672456e-13
7.351945e-13
6.078906e-13
7.906846e-13
6.625707e-13
8.578062e-13
7.205142e-13
9.396186e-13
8.101351e-13
1.046440e-12
9.085345e-13
1.166998e-12
1.032615e-12
1.302048e-12
1.152302e-12
1.421495e-12
1.259529e-12
1.526903e-12
1.347185e-12
1.601947e-12
1.407210e-12
1.658828e-12
1.450533e-12
1.692097e-12
1.474748e-12
1.716950e-12
1.490773e-12
1.728180e-12
1.498811e-12
1.737239e-12
1.501159e-12
1.732123e-12
1.494891e-12
1.722660e-12
1.482227e-12
1.699964e-12
1.463483e-12
1.677675e-12
1.443097e-12
1.647385e-12
1.419698e-12
1.620214e-12
1.395730e-12
1.587370e-12
1.370518e-12
1.557587e-12
1.342960e-12
1.518173e-12
1.308086e-12
1.473716e-12
1.263374e-12
1.413490e-12
1.205977e-12
1.344788e-12
1.136122e-12
1.258647e-12
1.051492e-12
1.163139e-12
9.553197e-13
1.054512e-12
8.518593e-13
9.450703e-13
7.486006e-13
8.325706e-13
6.474424e-13
7.292445e-13
5.595359e-13
6.335468e-13
4.803000e-13
5.515669e-13
4.157787e-13
4.774263e-13
3.566146e-13
4.086850e-13
3.002203e-13
3.378056e-13
2.418554e-13
2.637576e-13
1.794454e-13
1.816782e-13
1.104896e-13
9.363479e-14
3.852302e-14
0.000000e+00
0.000000e+00
7.009867e-15
1.124104e-14
2.151312e-14
2.302188e-14
3.692942e-14
3.566848e-14
5.350953e-14
4.924680e-14
7.128039e-14
6.368835e-14
8.983136e-14
7.869294e-14
1.094168e-13
9.537829e-14
1.319615e-13
1.150733e-13
1.595146e-13
1.403373e-13
1.954302e-13
1.724814e-13
2.406280e-13
2.118918e-13
2.944169e-13
2.585308e-13
3.579853e-13
3.120980e-13
4.281367e-13
3.700697e-13
5.041681e-13
4.335876e-13
5.876586e-13
5.033660e-13
6.797605e-13
5.817054e-13
7.834312e-13
6.692381e-13
8.989436e-13
7.625793e-13
1.017005e-12
8.606494e-13
1.144623e-12
9.586807e-13
1.260627e-12
1.052760e-12
1.380880e-12
1.139692e-12
1.477973e-12
1.221286e-12
1.587527e-12
1.298997e-12
1.673394e-12
1.376131e-12
1.784026e-12
1.450451e-12
1.864331e-12
1.517209e-12
1.957698e-12
1.578938e-12
2.023272e-12
1.621219e-12
2.071074e-12
1.654686e-12
2.112407e-12
1.678866e-12
2.137984e-12
1.701858e-12
2.170987e-12
1.722649e-12
2.192775e-12
1.741335e-12
2.217295e-12
1.756111e-12
2.231629e-12
1.764970e-12
2.236523e-12
1.760883e-12
2.221982e-12
1.743503e-12
2.191876e-12
1.713105e-12
2.147939e-12
1.676415e-12
2.098340e-12
1.634613e-12
2.043565e-12
1.590799e-12
1.987435e-12
1.545697e-12
1.931136e-12
1.501029e-12
1.873001e-12
1.453377e-12
1.810292e-12
1.402441e-12
1.743305e-12
1.349735e-12
1.677193e-12
1.300547e-12
1.615532e-12
1.254776e-12
1.557315e-12
1.211423e-12
1.500955e-12
1.167994e-12
1.442649e-12
1.121336e-12
1.376874e-12
1.063403e-12
1.292240e-12
9.932298e-13
1.197757e-12
9.120157e-13
1.086954e-12
8.227980e-13
9.735285e-13
7.304816e-13
8.537532e-13
6.314828e-13
7.252967e-13
5.259531e-13
5.891325e-13
4.106775e-13
4.366853e-13
2.835747e-13
2.708794e-13
1.459609e-13
9.252322e-14
0.000000e+00
0.000000e+00
7.583411e-15
1.973619e-14
2.367746e-14
4.055930e-14
4.057405e-14
6.317299e-14
5.912331e-14
8.752945e-14
7.889295e-14
1.133865e-13
9.986698e-14
1.403232e-13
1.217851e-13
1.700027e-13
1.476992e-13
2.051013e-13
1.788625e-13
2.508695e-13
2.207062e-13
3.095636e-13
2.728526e-13
3.823602e-13
3.354944e-13
4.682808e-13
4.090940e-13
5.668399e-13
4.913222e-13
6.742901e-13
5.795197e-13
7.912871e-13
6.779996e-13
9.196008e-13
7.848867e-13
1.062969e-12
9.066410e-13
1.224782e-12
1.041867e-12
1.396879e-12
1.179254e-12
1.579205e-12
1.330381e-12
1.758431e-12
1.463952e-12
1.934235e-12
1.608869e-12
2.091654e-12
1.714329e-12
2.238205e-12
1.838427e-12
2.363661e-12
1.905016e-12
2.476203e-12
1.995225e-12
2.562383e-12
2.010909e-12
2.615806e-12
2.034558e-12
2.644004e-12
2.011264e-12
2.635958e-12
1.974202e-12
2.620059e-12
1.950438e-12
2.608166e-12
1.923631e-12
2.610299e-12
1.933023e-12
2.628820e-12
1.938592e-12
2.652264e-12
1.962023e-12
2.679410e-12
1.975152e-12
2.693083e-12
1.981712e-12
2.688757e-12
1.965357e-12
2.655835e-12
1.932411e-12
2.603684e-12
1.883048e-12
2.535130e-12
1.827382e-12
2.461179e-12
1.766345e-12
2.381633e-12
1.703634e-12
2.304151e-12
1.642738e-12
2.224738e-12
1.581162e-12
2.146022e-12
1.520577e-12
2.063976e-12
1.463381e-12
1.991675e-12
1.420358e-12
1.934697e-12
1.397583e-12
1.900689e-12
1.394778e-12
1.883134e-12
1.405835e-12
1.877639e-12
1.421344e-12
1.864333e-12
1.424679e-12
1.826853e-12
1.394418e-12
1.750341e-12
1.336986e-12
1.640735e-12
1.241978e-12
1.498420e-12
1.128728e-12
1.340993e-12
9.988265e-13
1.163395e-12
8.505850e-13
9.725260e-13
6.935848e-13
7.599427e-13
5.128076e-13
5.257025e-13
3.191231e-13
2.698777e-13
1.081976e-13
0.000000e+00
0.000000e+00
1.179328e-14
1.895638e-14
3.673613e-14
3.919623e-14
6.345739e-14
6.123466e-14
9.285248e-14
8.526265e-14
1.244641e-13
1.109254e-13
1.578047e-13
1.377612e-13
1.928283e-13
1.676388e-13
2.336425e-13
2.032419e-13
2.838260e-13
2.499136e-13
3.514916e-13
3.109714e-13
4.377689e-13
3.866343e-13
5.416028e-13
4.765965e-13
6.642690e-13
5.802131e-13
8.008535e-13
6.932799e-13
9.489487e-13
8.170038e-13
1.111218e-12
9.517846e-13
1.288190e-12
1.101733e-12
1.487190e-12
1.270206e-12
1.709783e-12
1.447908e-12
1.932513e-12
1.633753e-12
2.175797e-12
1.814248e-12
2.385127e-12
1.989595e-12
2.617788e-12
2.148434e-12
2.786392e-12
2.303693e-12
3.012116e-12
2.455709e-12
3.171293e-12
2.622582e-12
3.429664e-12
2.800953e-12
3.614241e-12
2.975315e-12
3.856900e-12
3.148158e-12
4.033860e-12
3.278801e-12
4.174191e-12
3.386070e-12
4.295922e-12
3.462809e-12
4.363516e-12
3.522521e-12
4.445752e-12
3.572784e-12
4.490206e-12
3.612610e-12
4.547196e-12
3.647373e-12
4.576593e-12
3.665419e-12
4.591418e-12
3.662438e-12
4.567419e-12
3.632194e-12
4.516327e-12
3.580763e-12
4.437903e-12
3.513665e-12
4.348925e-12
3.440561e-12
4.252404e-12
3.363559e-12
4.155598e-12
3.288141e-12
4.059015e-12
3.209988e-12
3.956413e-12
3.125418e-12
3.840688e-12
3.028125e-12
3.710857e-12
2.921103e-12
3.570184e-12
2.806678e-12
3.426051e-12
2.688865e-12
3.276296e-12
2.565318e-12
3.124129e-12
2.438298e-12
2.963697e-12
2.302302e-12
2.790936e-12
2.149734e-12
2.587216e-12
1.981516e-12
2.376113e-12
1.802884e-12
2.141200e-12
1.615419e-12
1.909040e-12
1.428603e-12
1.669694e-12
1.232264e-12
1.416904e-12
1.026776e-12
1.151880e-12
8.018021e-13
8.528753e-13
5.532184e-13
5.290359e-13
2.840744e-13
1.797813e-13
0.000000e+00
0.000000e+00
1.028692e-14
2.668967e-14
3.223667e-14
5.549156e-14
5.618366e-14
8.761227e-14
8.259298e-14
1.227363e-13
1.116469e-13
1.605656e-13
1.421502e-13
1.998494e-13
1.746147e-13
2.434838e-13
2.127461e-13
2.954040e-13
2.599450e-13
3.654067e-13
3.246919e-13
4.576577e-13
4.087465e-13
5.744682e-13
5.090322e-13
7.127957e-13
6.297654e-13
8.734575e-13
7.630204e-13
1.048255e-12
9.093618e-13
1.239721e-12
1.068039e-12
1.445350e-12
1.241711e-12
1.675242e-12
1.433123e-12
1.931711e-12
1.652113e-12
2.203395e-12
1.859250e-12
2.484007e-12
2.098462e-12
2.754331e-12
2.281350e-12
3.016350e-12
2.516956e-12
3.253716e-12
2.656155e-12
3.492680e-12
2.911300e-12
3.743140e-12
3.068109e-12
4.037966e-12
3.411532e-12
4.387492e-12
3.660665e-12
4.745476e-12
4.034494e-12
5.126354e-12
4.326842e-12
5.428117e-12
4.583456e-12
5.689849e-12
4.803653e-12
5.871569e-12
4.926464e-12
6.011314e-12
5.053712e-12
6.109801e-12
5.109293e-12
6.188276e-12
5.179817e-12
6.246135e-12
5.209142e-12
6.281929e-12
5.228938e-12
6.277478e-12
5.206919e-12
6.238224e-12
5.163069e-12
6.158778e-12
5.089909e-12
6.063693e-12
5.009616e-12
5.951713e-12
4.921092e-12
5.844893e-12
4.835125e-12
5.732440e-12
4.747472e-12
5.622193e-12
4.652138e-12
5.487864e-12
4.533701e-12
5.332025e-12
4.391706e-12
5.138785e-12
4.214669e-12
4.922763e-12
4.015251e-12
4.673317e-12
3.782561e-12
4.406785e-12
3.533328e-12
4.117185e-12
3.264458e-12
3.817644e-12
2.991481e-12
3.494805e-12
2.697750e-12
3.168072e-12
2.426926e-12
2.840177e-12
2.148031e-12
2.521302e-12
1.897123e-12
2.213554e-12
1.647364e-12
1.905170e-12
1.394466e-12
1.585100e-12
1.131887e-12
1.238828e-12
8.377216e-13
8.546120e-13
5.180280e-13
4.386280e-13
1.771088e-13
0.000000e+00
0.000000e+00
1.348334e-14
2.189272e-14
4.232883e-14
4.604222e-14
7.479904e-14
7.334901e-14
1.112536e-13
1.037996e-13
1.517177e-13
1.368271e-13
1.941076e-13
1.713234e-13
2.390853e-13
2.099693e-13
2.913748e-13
2.563756e-13
3.576878e-13
3.194785e-13
4.500055e-13
4.044912e-13
5.714061e-13
5.114877e-13
7.178134e-13
6.392221e-13
8.932252e-13
7.872404e-13
1.087753e-12
9.491340e-13
1.300732e-12
1.125835e-12
1.529929e-12
1.316598e-12
1.781272e-12
1.527652e-12
2.058738e-12
1.766848e-12
2.379038e-12
2.017232e-12
2.683551e-12
2.281430e-12
3.039423e-12
2.532953e-12
3.310481e-12
2.783881e-12
3.666420e-12
3.002414e-12
3.855081e-12
3.215812e-12
4.203941e-12
3.405879e-12
4.335030e-12
3.595985e-12
4.689748e-12
3.781254e-12
4.807612e-12
3.919633e-12
5.058502e-12
4.053405e-12
5.154656e-12
4.107964e-12
5.224065e-12
4.159766e-12
5.296665e-12
4.181916e-12
5.299503e-12
4.213634e-12
5.380753e-12
4.251324e-12
5.403990e-12
4.294320e-12
5.485560e-12
4.338959e-12
5.519419e-12
4.366944e-12
5.549131e-12
4.364569e-12
5.518356e-12
4.329152e-12
5.456118e-12
4.259881e-12
5.351978e-12
4.173798e-12
5.237613e-12
4.075441e-12
5.112593e-12
3.979845e-12
4.993903e-12
3.882759e-12
4.873542e-12
3.788612e-12
4.751295e-12
3.681838e-12
4.609216e-12
3.571667e-12
4.467637e-12
3.455489e-12
4.318520e-12
3.352954e-12
4.195566e-12
3.260380e-12
4.076708e-12
3.183631e-12
3.980669e-12
3.107643e-12
3.869533e-12
3.022429e-12
3.741433e-12
2.895912e-12
3.540600e-12
2.731235e-12
3.314730e-12
2.525535e-12
3.019874e-12
2.288885e-12
2.717315e-12
2.036461e-12
2.384956e-12
1.763941e-12
2.032049e-12
1.473189e-12
1.654188e-12
1.152972e-12
1.227326e-12
7.952125e-13
7.600239e-13
4.082251e-13
2.590592e-13
0.000000e+00
0.000000e+00
1.032027e-14
2.694306e-14
3.318136e-14
5.736435e-14
5.934451e-14
9.312036e-14
8.946394e-14
1.336091e-13
1.234947e-13
1.777505e-13
1.593329e-13
2.236491e-13
1.974372e-13
2.746289e-13
2.428011e-13
3.362332e-13
2.997395e-13
4.226963e-13
3.817644e-13
5.405124e-13
4.899415e-13
6.921690e-13
6.207852e-13
8.733899e-13
7.782980e-13
1.083991e-12
9.529583e-13
1.314246e-12
1.144097e-12
1.563840e-12
1.350151e-12
1.831960e-12
1.575666e-12
2.128292e-12
1.821909e-12
2.466093e-12
2.115917e-12
2.818505e-12
2.378673e-12
3.195266e-12
2.719455e-12
3.547901e-12
2.938406e-12
3.908807e-12
3.301678e-12
4.208088e-12
3.413254e-12
4.499165e-12
3.765109e-12
4.724347e-12
3.747562e-12
4.915207e-12
4.019992e-12
5.052914e-12
3.891190e-12
5.067210e-12
3.940248e-12
5.054584e-12
3.769396e-12
4.913184e-12
3.612093e-12
4.800618e-12
3.509246e-12
4.684920e-12
3.362099e-12
4.633300e-12
3.375376e-12
4.632148e-12
3.332897e-12
4.664665e-12
3.400088e-12
4.720653e-12
3.412199e-12
4.757223e-12
3.443790e-12
4.758223e-12
3.412329e-12
4.708664e-12
3.361622e-12
4.614083e-12
3.268340e-12
4.495403e-12
3.170730e-12
4.361410e-12
3.061088e-12
4.233849e-12
2.960799e-12
4.105747e-12
2.858375e-12
3.985619e-12
2.764386e-12
3.854216e-12
2.659490e-12
3.732213e-12
2.587473e-12
3.626330e-12
2.531838e-12
3.572655e-12
2.550307e-12
3.569211e-12
2.602097e-12
3.623208e-12
2.711522e-12
3.699904e-12
2.813413e-12
3.764602e-12
2.897129e-12
3.754761e-12
2.878311e-12
3.654253e-12
2.807019e-12
3.457991e-12
2.621931e-12
3.180842e-12
2.402326e-12
2.856373e-12
2.128121e-12
2.487194e-12
1.821127e-12
2.084299e-12
1.487919e-12
1.633872e-12
1.102980e-12
1.129702e-12
6.844435e-13
5.798112e-13
2.325800e-13
0.000000e+00
0.000000e+00
1.160134e-14
1.933353e-14
3.800756e-14
4.220889e-14
6.969236e-14
6.980969e-14
1.076576e-13
1.021994e-13
1.511600e-13
1.378795e-13
1.969384e-13
1.750852e-13
2.451272e-13
2.170977e-13
3.024369e-13
2.686052e-13
3.768465e-13
3.419786e-13
4.869999e-13
4.453897e-13
6.365039e-13
5.789695e-13
8.209386e-13
7.413338e-13
1.044460e-12
9.304705e-13
1.292639e-12
1.137577e-12
1.564415e-12
1.361731e-12
1.852445e-12
1.601922e-12
2.167556e-12
1.862946e-12
2.506036e-12
2.160735e-12
2.908696e-12
2.460456e-12
3.256704e-12
2.781747e-12
3.709468e-12
3.065935e-12
3.973564e-12
3.364888e-12
4.455853e-12
3.602100e-12
4.578632e-12
3.865401e-12
5.118381e-12
4.104626e-12
5.184874e-12
4.379372e-12
5.802662e-12
4.687276e-12
5.934212e-12
4.936752e-12
6.415683e-12
5.218252e-12
6.596639e-12
5.360164e-12
6.763693e-12
5.501248e-12
6.925724e-12
5.565507e-12
6.926710e-12
5.626765e-12
7.074977e-12
5.685658e-12
7.078289e-12
5.737901e-12
7.206967e-12
5.801438e-12
7.237204e-12
5.836212e-12
7.291824e-12
5.842330e-12
7.253939e-12
5.800731e-12
7.188385e-12
5.722920e-12
7.065365e-12
5.622572e-12
6.938993e-12
5.514068e-12
6.799645e-12
5.410347e-12
6.678780e-12
5.310332e-12
6.551156e-12
5.213587e-12
6.429455e-12
5.096454e-12
6.257267e-12
4.962337e-12
6.088302e-12
4.803091e-12
5.865091e-12
4.635299e-12
5.670948e-12
4.461416e-12
5.444949e-12
4.289110e-12
5.252180e-12
4.115907e-12
5.030153e-12
3.933316e-12
4.804595e-12
3.712582e-12
4.493073e-12
3.459024e-12
4.176544e-12
3.172227e-12
3.778835e-12
2.858600e-12
3.392730e-12
2.538614e-12
2.972750e-12
2.196548e-12
2.533552e-12
1.836350e-12
2.064898e-12
1.438145e-12
1.532595e-12
9.933898e-13
9.513994e-13
5.102822e-13
3.233027e-13
0.000000e+00
0.000000e+00
7.525194e-15
2.039166e-14
2.589092e-14
4.606686e-14
4.914152e-14
7.940901e-14
7.807390e-14
1.197957e-13
1.126551e-13
1.645156e-13
1.486862e-13
2.106865e-13
1.869542e-13
2.618347e-13
2.336071e-13
3.258336e-13
2.944680e-13
4.211514e-13
3.880958e-13
5.591593e-13
5.182082e-13
7.424136e-13
6.782134e-13
9.670193e-13
8.774038e-13
1.229872e-12
1.095012e-12
1.517626e-12
1.337152e-12
1.826013e-12
1.588148e-12
2.152725e-12
1.867012e-12
2.505652e-12
2.150719e-12
2.906812e-12
2.509419e-12
3.304027e-12
2.770935e-12
3.729212e-12
3.185320e-12
4.088664e-12
3.326167e-12
4.477375e-12
3.806558e-12
4.772676e-12
3.789486e-12
5.140792e-12
4.419066e-12
5.510269e-12
4.411365e-12
5.993165e-12
5.251838e-12
6.602238e-12
5.475866e-12
7.168408e-12
6.271007e-12
7.834205e-12
6.689191e-12
8.273951e-12
7.119420e-12
8.693145e-12
7.502598e-12
8.936241e-12
7.616141e-12
9.125812e-12
7.874715e-12
9.264390e-12
7.885310e-12
9.364188e-12
8.044136e-12
9.466042e-12
8.057232e-12
9.520351e-12
8.120775e-12
9.533385e-12
8.080639e-12
9.479154e-12
8.031597e-12
9.373593e-12
7.922749e-12
9.242891e-12
7.822615e-12
9.100081e-12
7.705087e-12
8.973729e-12
7.614473e-12
8.848392e-12
7.506511e-12
8.729281e-12
7.411943e-12
8.561767e-12
7.231556e-12
8.347894e-12
7.045198e-12
8.056405e-12
6.732136e-12
7.708465e-12
6.416020e-12
7.300846e-12
5.995148e-12
6.861113e-12
5.583619e-12
6.398188e-12
5.123385e-12
5.927549e-12
4.688757e-12
5.427697e-12
4.207230e-12
4.924250e-12
3.791193e-12
4.418451e-12
3.340706e-12
3.923498e-12
2.959525e-12
3.451458e-12
2.567430e-12
2.975473e-12
2.180793e-12
2.483592e-12
1.774004e-12
1.946030e-12
1.316449e-12
1.346302e-12
8.163213e-13
6.921180e-13
2.790213e-13
0.000000e+00
0.000000e+00
7.283888e-15
1.283356e-14
2.616218e-14
3.079528e-14
5.299566e-14
5.551855e-14
8.853481e-14
8.711946e-14
1.318416e-13
1.223134e-13
1.763456e-13
1.584471e-13
2.226433e-13
1.989163e-13
2.780883e-13
2.504243e-13
3.542423e-13
3.284816e-13
4.747183e-13
4.453209e-13
6.467516e-13
5.992623e-13
8.600737e-13
7.902054e-13
1.125512e-12
1.011928e-12
1.413867e-12
1.254484e-12
1.734224e-12
1.511536e-12
2.058529e-12
1.785608e-12
2.422256e-12
2.076499e-12
2.790936e-12
2.419348e-12
3.272369e-12
2.751745e-12
3.628035e-12
3.132652e-12
4.210449e-12
3.446506e-12
4.421206e-12
3.816551e-12
5.111849e-12
4.073480e-12
5.076861e-12
4.391317e-12
5.889629e-12
4.629301e-12
5.682901e-12
4.873146e-12
6.508504e-12
5.118777e-12
6.297287e-12
5.196742e-12
6.756406e-12
5.337618e-12
6.644361e-12
5.251568e-12
6.606918e-12
5.241604e-12
6.624851e-12
5.154329e-12
6.426181e-12
5.127285e-12
6.562384e-12
5.138116e-12
6.459052e-12
5.159878e-12
6.621019e-12
5.224580e-12
6.614892e-12
5.253235e-12
6.691389e-12
5.260821e-12
6.631699e-12
5.206875e-12
6.558824e-12
5.114220e-12
6.407584e-12
4.997160e-12
6.268608e-12
4.873637e-12
6.106439e-12
4.760331e-12
5.986028e-12
4.649326e-12
5.835703e-12
4.546775e-12
5.725066e-12
4.417016e-12
5.518393e-12
4.284269e-12
5.388985e-12
4.146759e-12
5.179831e-12
4.040443e-12
5.105810e-12
3.975973e-12
5.004518e-12
3.950897e-12
5.009519e-12
3.951171e-12
4.978386e-12
3.940486e-12
4.942236e-12
3.861077e-12
4.760435e-12
3.707039e-12
4.536701e-12
3.469717e-12
4.159638e-12
3.167980e-12
3.778789e-12
2.837471e-12
3.327077e-12
2.467914e-12
2.852151e-12
2.070769e-12
2.329073e-12
1.626318e-12
1.736196e-12
1.126247e-12
1.078278e-12
5.800826e-13
3.691002e-13
0.000000e+00
0.000000e+00
3.793543e-15
1.123037e-14
1.576425e-14
2.987055e-14
3.477595e-14
5.924283e-14
6.157649e-14
9.838148e-14
9.589667e-14
1.419145e-13
1.303155e-13
1.857287e-13
1.661859e-13
2.328934e-13
2.102847e-13
2.941173e-13
2.706046e-13
3.923460e-13
3.702344e-13
5.436395e-13
5.151157e-13
7.482276e-13
6.919289e-13
1.002242e-12
9.173463e-13
1.296757e-12
1.154625e-12
1.618824e-12
1.424201e-12
1.954788e-12
1.687022e-12
2.309163e-12
1.993633e-12
2.683718e-12
2.283013e-12
3.134452e-12
2.715998e-12
3.571386e-12
2.973062e-12
4.089755e-12
3.556910e-12
4.510247e-12
3.647396e-12
5.031778e-12
4.415084e-12
5.371899e-12
4.191880e-12
5.789399e-12
5.081471e-12
6.020965e-12
4.513221e-12
6.172010e-12
5.215274e-12
6.218547e-12
4.440676e-12
5.906774e-12
4.508913e-12
5.642987e-12
3.829205e-12
5.044672e-12
3.344755e-12
4.632510e-12
3.018950e-12
4.202348e-12
2.520987e-12
3.959851e-12
2.538625e-12
3.856004e-12
2.295183e-12
3.818758e-12
2.433839e-12
3.880198e-12
2.370151e-12
3.899914e-12
2.444647e-12
3.903973e-12
2.369844e-12
3.820491e-12
2.310385e-12
3.689183e-12
2.166367e-12
3.524867e-12
2.049493e-12
3.353104e-12
1.895210e-12
3.200614e-12
1.796196e-12
3.049218e-12
1.644178e-12
2.914866e-12
1.574736e-12
2.754150e-12
1.399347e-12
2.625520e-12
1.407310e-12
2.554017e-12
1.362684e-12
2.604830e-12
1.590378e-12
2.808091e-12
1.840241e-12
3.140556e-12
2.276839e-12
3.561509e-12
2.691056e-12
3.963951e-12
3.083416e-12
4.236437e-12
3.280932e-12
4.328745e-12
3.364580e-12
4.224578e-12
3.219519e-12
3.958918e-12
3.012022e-12
3.600852e-12
2.690913e-12
3.161063e-12
2.325462e-12
2.667578e-12
1.908097e-12
2.102245e-12
1.424078e-12
1.461370e-12
8.863983e-13
7.532119e-13
3.039033e-13
0.000000e+00
0.000000e+00
2.088403e-15
5.155062e-15
1.236507e-14
1.734237e-14
3.330001e-14
3.861301e-14
6.612851e-14
6.918733e-14
1.088376e-13
1.033847e-13
1.511328e-13
1.370980e-13
1.933263e-13
1.738905e-13
2.438307e-13
2.222882e-13
3.175991e-13
3.016304e-13
4.446608e-13
4.299738e-13
6.387505e-13
6.032867e-13
8.790771e-13
8.236964e-13
1.190443e-12
1.079651e-12
1.518227e-12
1.361711e-12
1.895438e-12
1.655474e-12
2.252999e-12
1.966160e-12
2.669321e-12
2.282855e-12
3.050626e-12
2.667447e-12
3.612164e-12
3.006846e-12
3.915531e-12
3.421963e-12
4.624500e-12
3.704079e-12
4.658941e-12
4.105479e-12
5.593045e-12
4.322372e-12
5.255039e-12
4.692894e-12
6.492720e-12
4.966327e-12
5.965409e-12
5.302556e-12
7.326347e-12
5.716927e-12
6.947059e-12
5.900206e-12
7.806923e-12
6.252705e-12
7.725826e-12
6.242442e-12
7.817021e-12
6.363500e-12
7.965649e-12
6.311394e-12
7.707915e-12
6.315446e-12
7.963983e-12
6.341758e-12
7.769333e-12
6.352380e-12
8.002051e-12
6.426619e-12
7.938047e-12
6.435850e-12
8.033663e-12
6.436043e-12
7.928766e-12
6.353827e-12
7.837992e-12
6.235852e-12
7.637827e-12
6.088068e-12
7.477844e-12
5.939346e-12
7.272566e-12
5.809611e-12
7.158347e-12
5.682326e-12
6.957978e-12
5.567953e-12
6.866478e-12
5.405468e-12
6.553836e-12
5.226490e-12
6.415558e-12
5.018552e-12
6.043109e-12
4.804929e-12
5.892825e-12
4.629652e-12
5.625204e-12
4.469536e-12
5.516119e-12
4.363378e-12
5.380740e-12
4.252991e-12
5.252550e-12
4.102561e-12
5.017416e-12
3.894206e-12
4.739133e-12
3.618189e-12
4.327665e-12
3.287853e-12
3.919914e-12
2.942833e-12
3.454066e-12
2.561318e-12
2.966005e-12
2.156460e-12
2.431809e-12
1.698641e-12
1.817717e-12
1.180914e-12
1.133847e-12
6.096859e-13
3.879751e-13
0.000000e+00
0.000000e+00
-5.149951e-16
1.218741e-15
4.649468e-15
1.251211e-14
1.900503e-14
3.790138e-14
4.357608e-14
7.604042e-14
7.777611e-14
1.183449e-13
1.097934e-13
1.584504e-13
1.419798e-13
1.988810e-13
1.804175e-13
2.536733e-13
2.383954e-13
3.512294e-13
3.411387e-13
5.175552e-13
5.091638e-13
7.495456e-13
7.077843e-13
1.047564e-12
9.856179e-13
1.395414e-12
1.260051e-12
1.780939e-12
1.600598e-12
2.177412e-12
1.897861e-12
2.587819e-12
2.272648e-12
3.000474e-12
2.561588e-12
3.497853e-12
3.071898e-12
3.919155e-12
3.211388e-12
4.430240e-12
3.880963e-12
4.734924e-12
3.662336e-12
5.211014e-12
4.634887e-12
5.440016e-12
4.006761e-12
5.946898e-12
5.471221e-12
6.409907e-12
4.801562e-12
7.092124e-12
6.659147e-12
8.043829e-12
6.502997e-12
8.777448e-12
8.042353e-12
9.832275e-12
8.482101e-12
1.035946e-11
9.145645e-12
1.100024e-11
9.775396e-12
1.127912e-11
9.775741e-12
1.150787e-11
1.027696e-11
1.167207e-11
1.011418e-11
1.174061e-11
1.041788e-11
1.186361e-11
1.032065e-11
1.187259e-11
1.042838e-11
1.186626e-11
1.030701e-11
1.174160e-11
1.023543e-11
1.157150e-11
1.004143e-11
1.136422e-11
9.914043e-12
1.115912e-11
9.716651e-12
1.099224e-11
9.646494e-12
1.082589e-11
9.437436e-12
1.067158e-11
9.392409e-12
1.041671e-11
9.007548e-12
1.008261e-11
8.827949e-12
9.630030e-12
8.214468e-12
9.057244e-12
7.785576e-12
8.448123e-12
7.071936e-12
7.769385e-12
6.464726e-12
7.146603e-12
5.824869e-12
6.527249e-12
5.218796e-12
5.927704e-12
4.646172e-12
5.343604e-12
4.125108e-12
4.767422e-12
3.615961e-12
4.217628e-12
3.184647e-12
3.710555e-12
2.767921e-12
3.209404e-12
2.359410e-12
2.697241e-12
1.933648e-12
2.128521e-12
1.444569e-12
1.483736e-12
9.014449e-13
7.667708e-13
3.101422e-13
0.000000e+00
0.000000e+00
-3.292924e-15
-2.993779e-15
-1.832133e-15
3.233414e-15
1.366421e-14
2.117158e-14
4.392845e-14
5.049332e-14
8.620349e-14
8.260715e-14
1.236307e-13
1.113788e-13
1.589516e-13
1.402978e-13
1.966399e-13
1.805118e-13
2.645011e-13
2.563191e-13
3.886247e-13
3.943549e-13
6.090607e-13
5.845312e-13
8.631918e-13
8.318025e-13
1.226937e-12
1.114715e-12
1.568764e-12
1.424573e-12
2.001277e-12
1.733253e-12
2.344127e-12
2.050027e-12
2.795196e-12
2.356200e-12
3.129095e-12
2.760794e-12
3.784549e-12
3.094719e-12
3.994237e-12
3.570609e-12
4.923794e-12
3.856598e-12
4.759591e-12
4.365980e-12
6.111106e-12
4.602167e-12
5.412098e-12
5.076953e-12
7.223054e-12
5.366650e-12
6.164701e-12
5.666972e-12
7.980696e-12
6.029073e-12
7.019163e-12
5.960547e-12
7.929850e-12
6.161038e-12
7.435701e-12
5.845137e-12
7.282539e-12
5.811019e-12
7.299682e-12
5.577142e-12
6.763616e-12
5.480413e-12
7.054319e-12
5.452523e-12
6.683976e-12
5.411355e-12
6.971756e-12
5.479010e-12
6.817692e-12
5.452861e-12
6.922769e-12
5.435110e-12
6.750822e-12
5.313297e-12
6.631903e-12
5.158569e-12
6.360237e-12
4.971711e-12
6.175173e-12
4.784136e-12
5.893535e-12
4.628259e-12
5.788632e-12
4.458870e-12
5.472489e-12
4.307117e-12
5.405679e-12
4.075801e-12
4.905983e-12
3.841880e-12
4.828628e-12
3.614590e-12
4.343658e-12
3.422307e-12
4.353366e-12
3.378475e-12
4.210983e-12
3.379323e-12
4.338804e-12
3.511773e-12
4.500134e-12
3.619730e-12
4.575432e-12
3.666568e-12
4.594233e-12
3.606943e-12
4.414014e-12
3.418859e-12
4.121772e-12
3.148566e-12
3.746386e-12
2.834896e-12
3.334389e-12
2.484235e-12
2.873581e-12
2.102109e-12
2.374386e-12
1.666833e-12
1.784097e-12
1.163246e-12
1.116709e-12
6.029249e-13
3.845874e-13
0.000000e+00
0.000000e+00
-4.927384e-15
-8.824432e-15
-6.958326e-15
-4.865085e-15
2.808642e-15
1.676612e-14
2.437828e-14
5.320351e-14
5.740552e-14
9.162017e-14
8.243813e-14
1.234430e-13
1.076037e-13
1.497749e-13
1.304915e-13
1.896980e-13
1.833281e-13
2.772239e-13
2.748079e-13
4.508186e-13
4.675167e-13
6.968226e-13
6.582210e-13
1.018249e-12
9.774642e-13
1.381497e-12
1.223346e-12
1.777323e-12
1.593551e-12
2.158200e-12
1.817393e-12
2.535460e-12
2.197578e-12
2.897858e-12
2.387245e-12
3.401941e-12
3.007670e-12
3.833023e-12
3.064185e-12
4.481566e-12
4.080223e-12
4.900081e-12
3.754478e-12
5.641731e-12
5.331247e-12
6.011152e-12
4.367510e-12
6.650651e-12
6.362575e-12
6.926751e-12
4.743012e-12
7.025117e-12
6.348529e-12
7.003700e-12
4.487579e-12
6.194538e-12
4.733654e-12
5.655423e-12
3.337307e-12
4.440279e-12
2.462184e-12
3.718982e-12
1.944328e-12
2.912282e-12
9.518264e-13
2.451139e-12
1.066995e-12
2.228688e-12
4.979731e-13
2.073809e-12
7.579210e-13
2.115830e-12
5.285365e-13
2.052291e-12
6.367676e-13
2.008537e-12
4.484883e-13
1.827080e-12
3.575984e-13
1.601947e-12
9.592251e-14
1.340214e-12
-4.555723e-14
1.072309e-12
-3.345253e-13
8.570087e-13
-3.954134e-13
6.075111e-13
-7.625021e-13
3.872671e-13
-7.507625e-13
6.706236e-14
-1.267616e-12