# vtk DataFile Version 2.0
Sample rectilinear grid
ASCII
DATASET RECTILINEAR_GRID
DIMENSIONS 33 33 1
X_COORDINATES 33 float
0.000000e+00 3.125000e-02 6.250000e-02 9.375000e-02 1.250000e-01 1.562500e-01 1.875000e-01 2.187500e-01 2.500000e-01 2.812500e-01 3.125000e-01 3.437500e-01 3.750000e-01 4.062500e-01 4.375000e-01 4.687500e-01 5.000000e-01 5.312500e-01 5.625000e-01 5.937500e-01 6.250000e-01 6.562500e-01 6.875000e-01 7.187500e-01 7.500000e-01 7.812500e-01 8.125000e-01 8.437500e-01 8.750000e-01 9.062500e-01 9.375000e-01 9.687500e-01 1.000000e+00 
Y_COORDINATES 33 float
0.000000e+00 3.125000e-02 6.250000e-02 9.375000e-02 1.250000e-01 1.562500e-01 1.875000e-01 2.187500e-01 2.500000e-01 2.812500e-01 3.125000e-01 3.437500e-01 3.750000e-01 4.062500e-01 4.375000e-01 4.687500e-01 5.000000e-01 5.312500e-01 5.625000e-01 5.937500e-01 6.250000e-01 6.562500e-01 6.875000e-01 7.187500e-01 7.500000e-01 7.812500e-01 8.125000e-01 8.437500e-01 8.750000e-01 9.062500e-01 9.375000e-01 9.687500e-01 1.000000e+00 
Z_COORDINATES 1 float
0.000000e+00 
POINT_DATA 1089
SCALARS resh float
LOOKUP_TABLE default
0.000000e+00
0.000000e+00
0.000000e+00
0.000000e+00
0.000000e+00
0.000000e+00
0.000000e+00
0.000000e+00
0.000000e+00
0.000000e+00
0.000000e+00
0.000000e+00
0.000000e+00
0.000000e+00
0.000000e+00
0.000000e+00
0.000000e+00
0.000000e+00
0.000000e+00
0.000000e+00
0.000000e+00
0.000000e+00
0.000000e+00
0.000000e+00
0.000000e+00
0.000000e+00
0.000000e+00
0.000000e+00
0.000000e+00
0.000000e+00
0.000000e+00
0.000000e+00
0.000000e+00
0.000000e+00
0.000000e+00
0.000000e+00
0.000000e+00
0.000000e+00
0.000000e+00
0.000000e+00
0.000000e+00
0.000000e+00
0.000000e+00
0.000000e+00
0.000000e+00
0.000000e+00
0.000000e+00
0.000000e+00
0.000000e+00
0.000000e+00
0.000000e+00
0.000000e+00
0.000000e+00
0.000000e+00
0.000000e+00
0.000000e+00
0.000000e+00
0.000000e+00
0.000000e+00
0.000000e+00
0.000000e+00
0.000000e+00
0.000000e+00
0.000000e+00
0.000000e+00
0.000000e+00
0.000000e+00
0.000000e+00
0.000000e+00
0.000000e+00
0.000000e+00
0.000000e+00
0.000000e+00
0.000000e+00
0.000000e+00
0.000000e+00
0.000000e+00
0.000000e+00
0.000000e+00
0.000000e+00
0.000000e+00
0.000000e+00
0.000000e+00
0.000000e+00
0.000000e+00
0.000000e+00
0.000000e+00
0.000000e+00
0.000000e+00
0.000000e+00
0.000000e+00
0.000000e+00
0.000000e+00
0.000000e+00
0.000000e+00
0.000000e+00
0.000000e+00
0.000000e+00
0.000000e+00
0.000000e+00
0.000000e+00
0.000000e+00
0.000000e+00
0.000000e+00
0.000000e+00
0.000000e+00
0.000000e+00
0.000000e+00
0.000000e+00
0.000000e+00
0.000000e+00
0.000000e+00
0.000000e+00
0.000000e+00
0.000000e+00
0.000000e+00
0.000000e+00
0.000000e+00
0.000000e+00
0.000000e+00
0.000000e+00
0.000000e+00
0.000000e+00
0.000000e+00
0.000000e+00
0.000000e+00
0.000000e+00
0.000000e+00
0.000000e+00
0.000000e+00
0.000000e+00
0.000000e+00
0.000000e+00
0.000000e+00
0.000000e+00
0.000000e+00
0.000000e+00
0.000000e+00
0.000000e+00
0.000000e+00
0.000000e+00
0.000000e+00
0.000000e+00
0.000000e+00
0.000000e+00
0.000000e+00
0.000000e+00
0.000000e+00
0.000000e+00
0.000000e+00
0.000000e+00
0.000000e+00
0.000000e+00
0.000000e+00
0.000000e+00
0.000000e+00
0.000000e+00
0.000000e+00
0.000000e+00
0.000000e+00
0.000000e+00
0.000000e+00
0.000000e+00
0.000000e+00
0.000000e+00
0.000000e+00
0.000000e+00
0.000000e+00
0.000000e+00
0.000000e+00
0.000000e+00
0.000000e+00
0.000000e+00
0.000000e+00
0.000000e+00
0.000000e+00
0.000000e+00
0.000000e+00
0.000000e+00
0.000000e+00
0.000000e+00
0.000000e+00
0.000000e+00
0.000000e+00
0.000000e+00
0.000000e+00
0.000000e+00
0.000000e+00
0.000000e+00
0.000000e+00
0.000000e+00
0.000000e+00
0.000000e+00
0.000000e+00
0.000000e+00
0.000000e+00
0.000000e+00
0.000000e+00
0.000000e+00
0.000000e+00
0.000000e+00
0.000000e+00
0.000000e+00
0.000000e+00
0.000000e+00
0.000000e+00
0.000000e+00
0.000000e+00
0.000000e+00
0.000000e+00
0.000000e+00
0.000000e+00
0.000000e+00
0.000000e+00
0.000000e+00
0.000000e+00
0.000000e+00
0.000000e+00
0.000000e+00
0.000000e+00
0.000000e+00
0.000000e+00
0.000000e+00
0.000000e+00
0.000000e+00
0.000000e+00
0.000000e+00
0.000000e+00
0.000000e+00
0.000000e+00
0.000000e+00
0.000000e+00
0.000000e+00
0.000000e+00
0.000000e+00
0.000000e+00
0.000000e+00
0.000000e+00
0.000000e+00
0.000000e+00
0.000000e+00
0.000000e+00
0.000000e+00
0.000000e+00
0.000000e+00
0.000000e+00
0.000000e+00
0.000000e+00
0.000000e+00
0.000000e+00
0.000000e+00
0.000000e+00
0.000000e+00
0.000000e+00
0.000000e+00
0.000000e+00
0.000000e+00
0.000000e+00
0.000000e+00
0.000000e+00
0.000000e+00
0.000000e+00
0.000000e+00
0.000000e+00
0.000000e+00
0.000000e+00
0.000000e+00
0.000000e+00
0.000000e+00
0.000000e+00
0.000000e+00
0.000000e+00
0.000000e+00
0.000000e+00
0.000000e+00
0.000000e+00
0.000000e+00
0.000000e+00
0.000000e+00
0.000000e+00
0.000000e+00
0.000000e+00
0.000000e+00
0.000000e+00
0.000000e+00
0.000000e+00
0.000000e+00
0.000000e+00
0.000000e+00
0.000000e+00
0.000000e+00
0.000000e+00
0.000000e+00
0.000000e+00
0.000000e+00
0.000000e+00
0.000000e+00
0.000000e+00
0.000000e+00
0.000000e+00
0.000000e+00
0.000000e+00
0.000000e+00
0.000000e+00
0.000000e+00
0.000000e+00
0.000000e+00
0.000000e+00
0.000000e+00
0.000000e+00
0.000000e+00
0.000000e+00
0.000000e+00
0.000000e+00
0.000000e+00
0.000000e+00
0.000000e+00
0.000000e+00
0.000000e+00
0.000000e+00
0.000000e+00
0.000000e+00
0.000000e+00
0.000000e+00
0.000000e+00
0.000000e+00
0.000000e+00
0.000000e+00
0.000000e+00
0.000000e+00
0.000000e+00
0.000000e+00
0.000000e+00
0.000000e+00
0.000000e+00
0.000000e+00
0.000000e+00
0.000000e+00
0.000000e+00
0.000000e+00
0.000000e+00
0.000000e+00
0.000000e+00
0.000000e+00
0.000000e+00
0.000000e+00
0.000000e+00
0.000000e+00
0.000000e+00
0.000000e+00
0.000000e+00
0.000000e+00
0.000000e+00
0.000000e+00
0.000000e+00
0.000000e+00
0.000000e+00
0.000000e+00
0.000000e+00
0.000000e+00
0.000000e+00
0.000000e+00
0.000000e+00
0.000000e+00
0.000000e+00
0.000000e+00
0.000000e+00
0.000000e+00
0.000000e+00
0.000000e+00
0.000000e+00
0.000000e+00
0.000000e+00
0.000000e+00
0.000000e+00
0.000000e+00
0.000000e+00
0.000000e+00
0.000000e+00
0.000000e+00
0.000000e+00
0.000000e+00
0.000000e+00
0.000000e+00
0.000000e+00
0.000000e+00
0.000000e+00
0.000000e+00
0.000000e+00
0.000000e+00
0.000000e+00
0.000000e+00
0.000000e+00
0.000000e+00
0.000000e+00
0.000000e+00
0.000000e+00
0.000000e+00
0.000000e+00
0.000000e+00
0.000000e+00
0.000000e+00
0.000000e+00
0.000000e+00
0.000000e+00
0.000000e+00
0.000000e+00
0.000000e+00
0.000000e+00
0.000000e+00
0.000000e+00
0.000000e+00
0.000000e+00
0.000000e+00
0.000000e+00
0.000000e+00
0.000000e+00
0.000000e+00
0.000000e+00
0.000000e+00
0.000000e+00
0.000000e+00
0.000000e+00
0.000000e+00
0.000000e+00
0.000000e+00
0.000000e+00
0.000000e+00
0.000000e+00
0.000000e+00
0.000000e+00
0.000000e+00
0.000000e+00
0.000000e+00
0.000000e+00
0.000000e+00
0.000000e+00
0.000000e+00
0.000000e+00
0.000000e+00
0.000000e+00
0.000000e+00
0.000000e+00
0.000000e+00
0.000000e+00
0.000000e+00
0.000000e+00
0.000000e+00
0.000000e+00
0.000000e+00
0.000000e+00
0.000000e+00
0.000000e+00
0.000000e+00
0.000000e+00
0.000000e+00
0.000000e+00
0.000000e+00
0.000000e+00
0.000000e+00
0.000000e+00
0.000000e+00
0.000000e+00
0.000000e+00
0.000000e+00
0.000000e+00
0.000000e+00
0.000000e+00
0.000000e+00
0.000000e+00
0.000000e+00
0.000000e+00
0.000000e+00
0.000000e+00
0.000000e+00
0.000000e+00
0.000000e+00
0.000000e+00
0.000000e+00
0.000000e+00
0.000000e+00
0.000000e+00
0.000000e+00
0.000000e+00
0.000000e+00
0.000000e+00
0.000000e+00
0.000000e+00
0.000000e+00
0.000000e+00
0.000000e+00
0.000000e+00
0.000000e+00
0.000000e+00
0.000000e+00
0.000000e+00
0.000000e+00
0.000000e+00
0.000000e+00
0.000000e+00
0.000000e+00
0.000000e+00
0.000000e+00
0.000000e+00
0.000000e+00
0.000000e+00
0.000000e+00
0.000000e+00
0.000000e+00
0.000000e+00
0.000000e+00
0.000000e+00
0.000000e+00
0.000000e+00
0.000000e+00
0.000000e+00
0.000000e+00
0.000000e+00
0.000000e+00
0.000000e+00
0.000000e+00
0.000000e+00
0.000000e+00
0.000000e+00
0.000000e+00
0.000000e+00
0.000000e+00
0.000000e+00
0.000000e+00
0.000000e+00
0.000000e+00
0.000000e+00
0.000000e+00
0.000000e+00
0.000000e+00
0.000000e+00
0.000000e+00
0.000000e+00
0.000000e+00
0.000000e+00
0.000000e+00
0.000000e+00
0.000000e+00
0.000000e+00
0.000000e+00
0.000000e+00
0.000000e+00
0.000000e+00
0.000000e+00
0.000000e+00
0.000000e+00
0.000000e+00
0.000000e+00
0.000000e+00
0.000000e+00
0.000000e+00
0.000000e+00
0.000000e+00
0.000000e+00
0.000000e+00
0.000000e+00
0.000000e+00
0.000000e+00
0.000000e+00
0.000000e+00
0.000000e+00
0.000000e+00
0.000000e+00
0.000000e+00
0.000000e+00
0.000000e+00
0.000000e+00
0.000000e+00
0.000000e+00
0.000000e+00
0.000000e+00
0.000000e+00
0.000000e+00
0.000000e+00
0.000000e+00
0.000000e+00
0.000000e+00
0.000000e+00
0.000000e+00
0.000000e+00
0.000000e+00
0.000000e+00
0.000000e+00
0.000000e+00
0.000000e+00
0.000000e+00
0.000000e+00
0.000000e+00
0.000000e+00
0.000000e+00
0.000000e+00
0.000000e+00
0.000000e+00
0.000000e+00
0.000000e+00
0.000000e+00
0.000000e+00
0.000000e+00
0.000000e+00
0.000000e+00
0.000000e+00
0.000000e+00
0.000000e+00
0.000000e+00
0.000000e+00
0.000000e+00
0.000000e+00
0.000000e+00
0.000000e+00
0.000000e+00
0.000000e+00
0.000000e+00
0.000000e+00
0.000000e+00
0.000000e+00
0.000000e+00
0.000000e+00
0.000000e+00
0.000000e+00
0.000000e+00
0.000000e+00
0.000000e+00
0.000000e+00
0.000000e+00
0.000000e+00
0.000000e+00
0.000000e+00
0.000000e+00
0.000000e+00
0.000000e+00
0.000000e+00
0.000000e+00
0.000000e+00
0.000000e+00
0.000000e+00
0.000000e+00
0.000000e+00
0.000000e+00
0.000000e+00
0.000000e+00
0.000000e+00
0.000000e+00
0.000000e+00
0.000000e+00
0.000000e+00
0.000000e+00
0.000000e+00
0.000000e+00
0.000000e+00
0.000000e+00
0.000000e+00
0.000000e+00
0.000000e+00
0.000000e+00
0.000000e+00
0.000000e+00
0.000000e+00
0.000000e+00
0.000000e+00
0.000000e+00
0.000000e+00
0.000000e+00
0.000000e+00
0.000000e+00
0.000000e+00
0.000000e+00
0.000000e+00
0.000000e+00
0.000000e+00
0.000000e+00
0.000000e+00
0.000000e+00
0.000000e+00
0.000000e+00
0.000000e+00
0.000000e+00
0.000000e+00
0.000000e+00
0.000000e+00
0.000000e+00
0.000000e+00
0.000000e+00
0.000000e+00
0.000000e+00
0.000000e+00
0.000000e+00
0.000000e+00
0.000000e+00
0.000000e+00
0.000000e+00
0.000000e+00
0.000000e+00
0.000000e+00
0.000000e+00
0.000000e+00
0.000000e+00
0.000000e+00
0.000000e+00
0.000000e+00
0.000000e+00
0.000000e+00
0.000000e+00
0.000000e+00
0.000000e+00
0.000000e+00
0.000000e+00
0.000000e+00
0.000000e+00
0.000000e+00
0.000000e+00
0.000000e+00
0.000000e+00
0.000000e+00
0.000000e+00
0.000000e+00
0.000000e+00
0.000000e+00
0.000000e+00
0.000000e+00
0.000000e+00
0.000000e+00
0.000000e+00
0.000000e+00
0.000000e+00
0.000000e+00
0.000000e+00
0.000000e+00
0.000000e+00
0.000000e+00
0.000000e+00
0.000000e+00
0.000000e+00
0.000000e+00
0.000000e+00
0.000000e+00
0.000000e+00
0.000000e+00
0.000000e+00
0.000000e+00
0.000000e+00
0.000000e+00
0.000000e+00
0.000000e+00
0.000000e+00
0.000000e+00
0.000000e+00
0.000000e+00
0.000000e+00
0.000000e+00
0.000000e+00
0.000000e+00
0.000000e+00
0.000000e+00
0.000000e+00
0.000000e+00
0.000000e+00
0.000000e+00
0.000000e+00
0.000000e+00
0.000000e+00
0.000000e+00
0.000000e+00
0.000000e+00
0.000000e+00
0.000000e+00
0.000000e+00
0.000000e+00
0.000000e+00
0.000000e+00
0.000000e+00
0.000000e+00
0.000000e+00
0.000000e+00
0.000000e+00
0.000000e+00
0.000000e+00
0.000000e+00
0.000000e+00
0.000000e+00
0.000000e+00
0.000000e+00
0.000000e+00
0.000000e+00
0.000000e+00
0.000000e+00
0.000000e+00
0.000000e+00
0.000000e+00
0.000000e+00
0.000000e+00
0.000000e+00
0.000000e+00
0.000000e+00
0.000000e+00
0.000000e+00
0.000000e+00
0.000000e+00
0.000000e+00
0.000000e+00
0.000000e+00
0.000000e+00
0.000000e+00
0.000000e+00
0.000000e+00
0.000000e+00
0.000000e+00
0.000000e+00
0.000000e+00
0.000000e+00
0.000000e+00
0.000000e+00
0.000000e+00
0.000000e+00
0.000000e+00
0.000000e+00
0.000000e+00
0.000000e+00
0.000000e+00
0.000000e+00
0.000000e+00
0.000000e+00
0.000000e+00
0.000000e+00
0.000000e+00
0.000000e+00
0.000000e+00
0.000000e+00
0.000000e+00
0.000000e+00
0.000000e+00
0.000000e+00
0.000000e+00
0.000000e+00
0.000000e+00
0.000000e+00
0.000000e+00
0.000000e+00
0.000000e+00
0.000000e+00
0.000000e+00
0.000000e+00
0.000000e+00
0.000000e+00
0.000000e+00
0.000000e+00
0.000000e+00
0.000000e+00
0.000000e+00
0.000000e+00
0.000000e+00
0.000000e+00
0.000000e+00
0.000000e+00
0.000000e+00
0.000000e+00
0.000000e+00
0.000000e+00
0.000000e+00
0.000000e+00
0.000000e+00
0.000000e+00
0.000000e+00
0.000000e+00
0.000000e+00
0.000000e+00
0.000000e+00
0.000000e+00
0.000000e+00
0.000000e+00
0.000000e+00
0.000000e+00
0.000000e+00
0.000000e+00
0.000000e+00
0.000000e+00
0.000000e+00
0.000000e+00
0.000000e+00
0.000000e+00
0.000000e+00
0.000000e+00
0.000000e+00
0.000000e+00
0.000000e+00
0.000000e+00
0.000000e+00
0.000000e+00
0.000000e+00
0.000000e+00
0.000000e+00
0.000000e+00
0.000000e+00
0.000000e+00
0.000000e+00
0.000000e+00
0.000000e+00
0.000000e+00
0.000000e+00
0.000000e+00
0.000000e+00
0.000000e+00
0.000000e+00
0.000000e+00
0.000000e+00
0.000000e+00
0.000000e+00
0.000000e+00
0.000000e+00
0.000000e+00
0.000000e+00
0.000000e+00
0.000000e+00
0.000000e+00
0.000000e+00
0.000000e+00
0.000000e+00
0.000000e+00
0.000000e+00
0.000000e+00
0.000000e+00
0.000000e+00
0.000000e+00
0.000000e+00
0.000000e+00
0.000000e+00
0.000000e+00
0.000000e+00
0.000000e+00
0.000000e+00
0.000000e+00
0.000000e+00
0.000000e+00
0.000000e+00
0.000000e+00
0.000000e+00
0.000000e+00
0.000000e+00
0.000000e+00
0.000000e+00
0.000000e+00
0.000000e+00
0.000000e+00
0.000000e+00
0.000000e+00
0.000000e+00
0.000000e+00
0.000000e+00
0.000000e+00
0.000000e+00
0.000000e+00
0.000000e+00
0.000000e+00
0.000000e+00
0.000000e+00
0.000000e+00
0.000000e+00
0.000000e+00
0.000000e+00
0.000000e+00
0.000000e+00
0.000000e+00
0.000000e+00
0.000000e+00
0.000000e+00
0.000000e+00
0.000000e+00
0.000000e+00
0.000000e+00
0.000000e+00
0.000000e+00
0.000000e+00
0.000000e+00
0.000000e+00
0.000000e+00
0.000000e+00
0.000000e+00
0.000000e+00
0.000000e+00
0.000000e+00
0.000000e+00
0.000000e+00
0.000000e+00
0.000000e+00
0.000000e+00
0.000000e+00
0.000000e+00
0.000000e+00
0.000000e+00
0.000000e+00
0.000000e+00
0.000000e+00
0.000000e+00
0.000000e+00
0.000000e+00
0.000000e+00
0.000000e+00
0.000000e+00
0.000000e+00
0.000000e+00
0.000000e+00
0.000000e+00
0.000000e+00
0.000000e+00
0.000000e+00
0.000000e+00
0.000000e+00
0.000000e+00
0.000000e+00
0.000000e+00
0.000000e+00
0.000000e+00
0.000000e+00
0.000000e+00
0.000000e+00
0.000000e+00
0.000000e+00
0.000000e+00
0.000000e+00
0.000000e+00
0.000000e+00
0.000000e+00
0.000000e+00
0.000000e+00
0.000000e+00
0.000000e+00
0.000000e+00
0.000000e+00
0.000000e+00
0.000000e+00
0.000000e+00
0.000000e+00
0.000000e+00
0.000000e+00
0.000000e+00
0.000000e+00
0.000000e+00
0.000000e+00
0.000000e+00
0.000000e+00
0.000000e+00
0.000000e+00
0.000000e+00
0.000000e+00
0.000000e+00
0.000000e+00
0.000000e+00
0.000000e+00
0.000000e+00
0.000000e+00
0.000000e+00
0.000000e+00
0.000000e+00
0.000000e+00
0.000000e+00
0.000000e+00
0.000000e+00
0.000000e+00
0.000000e+00
0.000000e+00
0.000000e+00
0.000000e+00
0.000000e+00
0.000000e+00
0.000000e+00
0.000000e+00
0.000000e+00
0.000000e+00
0.000000e+00
0.000000e+00
0.000000e+00
0.000000e+00
0.000000e+00
0.000000e+00
0.000000e+00
0.000000e+00
0.000000e+00
0.000000e+00
0.000000e+00
0.000000e+00
0.000000e+00
0.000000e+00
0.000000e+00
0.000000e+00
0.000000e+00

SCALARS res float
LOOKUP_TABLE default
0.000000e+00
0.000000e+00
0.000000e+00
0.000000e+00
0.000000e+00
0.000000e+00
0.000000e+00
0.000000e+00
0.000000e+00
0.000000e+00
0.000000e+00
0.000000e+00
0.000000e+00
0.000000e+00
0.000000e+00
0.000000e+00
0.000000e+00
0.000000e+00
0.000000e+00
0.000000e+00
0.000000e+00
0.000000e+00
0.000000e+00
0.000000e+00
0.000000e+00
0.000000e+00
0.000000e+00
0.000000e+00
0.000000e+00
0.000000e+00
0.000000e+00
0.000000e+00
0.000000e+00
0.000000e+00
1.939785e-01
4.820935e-01
9.584930e-01
1.617488e+00
2.451115e+00
3.449135e+00
4.599033e+00
5.886018e+00
7.293026e+00
8.800714e+00
1.038747e+01
1.202939e+01
1.370033e+01
1.537182e+01
1.701316e+01
1.859136e+01
2.007113e+01
2.141495e+01
2.258298e+01
2.353314e+01
2.422105e+01
2.460007e+01
2.462128e+01
2.423347e+01
2.338319e+01
2.201467e+01
2.006990e+01
1.748858e+01
1.420814e+01
1.016372e+01
5.288209e+00
0.000000e+00
0.000000e+00
4.820935e-01
7.599592e-01
1.219343e+00
1.854658e+00
2.658080e+00
3.619552e+00
4.726779e+00
5.965233e+00
7.318150e+00
8.766532e+00
1.028914e+01
1.186252e+01
1.346095e+01
1.505649e+01
1.661898e+01
1.811600e+01
1.951290e+01
2.077281e+01
2.185662e+01
2.272296e+01
2.332826e+01
2.362669e+01
2.357019e+01
2.310848e+01
2.218903e+01
2.075708e+01
1.875563e+01
1.612544e+01
1.280506e+01
8.730769e+00
3.836643e+00
0.000000e+00
0.000000e+00
9.584930e-01
1.219343e+00
1.650481e+00
2.246484e+00
2.999766e+00
3.900569e+00
4.936969e+00
6.094873e+00
7.358020e+00
8.707982e+00
1.012416e+01
1.158379e+01
1.306194e+01
1.453150e+01
1.596322e+01
1.732564e+01
1.858517e+01
1.970602e+01
2.065027e+01
2.137779e+01
2.184631e+01
2.201138e+01
2.182639e+01
2.124256e+01
2.020893e+01
1.867239e+01
1.657764e+01
1.386724e+01
1.048156e+01
6.358813e+00
1.435032e+00
0.000000e+00
0.000000e+00
1.617488e+00
1.854658e+00
2.246484e+00
2.787781e+00
3.471288e+00
4.287672e+00
5.225524e+00
6.271362e+00
7.409629e+00
8.622694e+00
9.890851e+00
1.119232e+01
1.250325e+01
1.379771e+01
1.504770e+01
1.622314e+01
1.729189e+01
1.821971e+01
1.897031e+01
1.950531e+01
1.978427e+01
1.976466e+01
1.940189e+01
1.864929e+01
1.745811e+01
1.577754e+01
1.355468e+01
1.073456e+01
7.260141e+00
3.072309e+00
-1.890126e+00
0.000000e+00
0.000000e+00
2.451115e+00
2.658080e+00
2.999766e+00
3.471288e+00
4.065810e+00
4.774540e+00
5.586734e+00
6.489694e+00
7.468769e+00
8.507352e+00
9.586887e+00
1.068686e+01
1.178480e+01
1.285630e+01
1.387498e+01
1.481252e+01
1.563863e+01
1.632107e+01
1.682568e+01
1.711629e+01
1.715483e+01
1.690124e+01
1.631351e+01
1.534771e+01
1.395791e+01
1.209626e+01
9.712933e+00
6.756172e+00
3.172250e+00
-1.094509e+00
-6.101734e+00
0.000000e+00
0.000000e+00
3.449135e+00
3.619552e+00
3.900569e+00
4.287672e+00
4.774540e+00
5.353045e+00
6.013256e+00
6.743431e+00
7.530027e+00
8.357692e+00
9.209269e+00
1.006579e+01
1.090650e+01
1.170881e+01
1.244834e+01
1.309891e+01
1.363252e+01
1.401937e+01
1.422786e+01
1.422458e+01
1.397430e+01
1.344001e+01
1.258288e+01
1.136227e+01
9.735733e+00
7.659030e+00
5.086105e+00
1.969099e+00
-1.741654e+00
-6.097627e+00
-1.115210e+01
0.000000e+00
0.000000e+00
4.599033e+00
4.726779e+00
4.936969e+00
5.225524e+00
5.586734e+00
6.013256e+00
6.496115e+00
7.024705e+00
7.586790e+00
8.168500e+00
8.754333e+00
9.327158e+00
9.868210e+00
1.035709e+01
1.077178e+01
1.108861e+01
1.128229e+01
1.132591e+01
1.119090e+01
1.084708e+01
1.026263e+01
9.404104e+00
8.236421e+00
6.722867e+00
4.825098e+00
2.503138e+00
-2.846215e-01
-3.581420e+00
-7.432127e+00
-1.188325e+01
-1.698291e+01
0.000000e+00
0.000000e+00
5.886018e+00
5.965233e+00
6.094873e+00
6.271362e+00
6.489694e+00
6.743431e+00
7.024705e+00
7.324219e+00
7.631242e+00
7.933617e+00
8.217752e+00
8.468628e+00
8.669794e+00
8.803368e+00
8.850038e+00
8.789062e+00
8.598268e+00
8.254051e+00
7.731378e+00
7.003784e+00
6.043375e+00
4.820824e+00
3.305376e+00
1.464844e+00
-7.343888e-01
-3.327370e+00
-6.350577e+00
-9.841919e+00
-1.384073e+01
-1.838779e+01
-2.352530e+01
0.000000e+00
0.000000e+00
7.293026e+00
7.318150e+00
7.358020e+00
7.409629e+00
7.468769e+00
7.530027e+00
7.586790e+00
7.631242e+00
7.654364e+00
7.645934e+00
7.594528e+00
7.487521e+00
7.311082e+00
7.050180e+00
6.688581e+00
6.208849e+00
5.592344e+00
4.819226e+00
3.868448e+00
2.717766e+00
1.343730e+00
-2.783127e-01
-2.174215e+00
-4.371035e+00
-6.897031e+00
-9.781665e+00
-1.305560e+01
-1.675071e+01
-2.090005e+01
-2.553791e+01
-3.069975e+01
0.000000e+00
0.000000e+00
8.800714e+00
8.766532e+00
8.707982e+00
8.622694e+00
8.507352e+00
8.357692e+00
8.168500e+00
7.933617e+00
7.645934e+00
7.297397e+00
6.879001e+00
6.380796e+00
5.791884e+00
5.100417e+00
4.293602e+00
3.357697e+00
2.278011e+00
1.038909e+00
-3.761955e-01
-1.984835e+00
-3.805489e+00
-5.857587e+00
-8.161504e+00
-1.073856e+01
-1.361104e+01
-1.680214e+01
-2.033605e+01
-2.423787e+01
-2.853367e+01
-3.325045e+01
-3.841618e+01
0.000000e+00
0.000000e+00
1.038747e+01
1.028914e+01
1.012416e+01
9.890851e+00
9.586887e+00
9.209269e+00
8.754333e+00
8.217752e+00
7.594528e+00
6.879001e+00
6.064842e+00
5.145058e+00
4.111988e+00
2.957308e+00
1.672023e+00
2.464771e-01
-1.329655e+00
-3.067363e+00
-4.978304e+00
-7.074800e+00
-9.369840e+00
-1.187708e+01
-1.461084e+01
-1.758610e+01
-2.081852e+01
-2.432442e+01
-2.812079e+01
-3.222527e+01
-3.665618e+01
-4.143250e+01
-4.657389e+01
0.000000e+00
0.000000e+00
1.202939e+01
1.186252e+01
1.158379e+01
1.119232e+01
1.068686e+01
1.006579e+01
9.327158e+00
8.468628e+00
7.487521e+00
6.380796e+00
5.145058e+00
3.776550e+00
2.271160e+00
6.244183e-01
-1.168504e+00
-3.112793e+00
-5.213991e+00
-7.477999e+00
-9.911075e+00
-1.251984e+01
-1.531126e+01
-1.829267e+01
-2.147175e+01
-2.485657e+01
-2.845551e+01
-3.227735e+01
-3.633119e+01
-4.062653e+01
-4.517318e+01
-4.998136e+01
-5.506159e+01
0.000000e+00
0.000000e+00
1.370033e+01
1.346095e+01
1.306194e+01
1.250325e+01
1.178480e+01
1.090650e+01
9.868210e+00
8.669794e+00
7.311082e+00
5.791884e+00
4.111988e+00
2.271160e+00
2.691429e-01
-1.894344e+00
-4.219601e+00
-6.706953e+00
-9.356746e+00
-1.216935e+01
-1.514515e+01
-1.828457e+01
-2.158804e+01
-2.505602e+01
-2.868899e+01
-3.248745e+01
-3.645193e+01
-4.058297e+01
-4.488115e+01
-4.934706e+01
-5.398131e+01
-5.878453e+01
-6.375740e+01
0.000000e+00
0.000000e+00
1.537182e+01
1.505649e+01
1.453150e+01
1.379771e+01
1.285630e+01
1.170881e+01
1.035709e+01
8.803368e+00
7.050180e+00
5.100417e+00
2.957308e+00
6.244183e-01
-1.894344e+00
-4.594731e+00
-7.472158e+00
-1.052170e+01
-1.373808e+01
-1.711571e+01
-2.064864e+01
-2.433057e+01
-2.815489e+01
-3.211462e+01
-3.620248e+01
-4.041080e+01
-4.473162e+01
-4.915659e+01
-5.367707e+01
-5.828404e+01
-6.296817e+01
-6.771977e+01
-7.252882e+01
0.000000e+00
0.000000e+00
1.701316e+01
1.661898e+01
1.596322e+01
1.504770e+01
1.387498e+01
1.244834e+01
1.077178e+01
8.850038e+00
6.688581e+00
4.293602e+00
1.672023e+00
-1.168504e+00
-4.219601e+00
-7.472158e+00
-1.091634e+01
-1.454158e+01
-1.833658e+01
-2.228932e+01
-2.638706e+01
-3.061630e+01
-3.496284e+01
-3.941174e+01
-4.394734e+01
-4.855324e+01
-5.321232e+01
-5.790672e+01
-6.261786e+01
-6.732644e+01
-7.201242e+01
-7.665502e+01
-8.123276e+01
0.000000e+00
0.000000e+00
1.859136e+01
1.811600e+01
1.732564e+01
1.622314e+01
1.481252e+01
1.309891e+01
1.108861e+01
8.789062e+00
6.208849e+00
3.357697e+00
2.464771e-01
-3.112793e+00
-6.706953e+00
-1.052170e+01
-1.454158e+01
-1.875000e+01
-2.312922e+01
-2.766037e+01
-3.232341e+01
-3.709717e+01
-4.195933e+01
-4.688644e+01
-5.185390e+01
-5.683594e+01
-6.180568e+01
-6.673508e+01
-7.159495e+01
-7.635498e+01
-8.098369e+01
-8.544846e+01
-8.971553e+01
0.000000e+00
0.000000e+00
2.007113e+01
1.951290e+01
1.858517e+01
1.729189e+01
1.563863e+01
1.363252e+01
1.128229e+01
8.598268e+00
5.592344e+00
2.278011e+00
-1.329655e+00
-5.213991e+00
-9.356746e+00
-1.373808e+01
-1.833658e+01
-2.312922e+01
-2.809142e+01
-3.319697e+01
-3.841812e+01
-4.372551e+01
-4.908817e+01
-5.447360e+01
-5.984765e+01
-6.517464e+01
-7.041726e+01
-7.553663e+01
-8.049228e+01
-8.524217e+01
-8.974264e+01
-9.394847e+01
-9.781285e+01
0.000000e+00
0.000000e+00
2.141495e+01
2.077281e+01
1.970602e+01
1.821971e+01
1.632107e+01
1.401937e+01
1.132591e+01
8.254051e+00
4.819226e+00
1.038909e+00
-3.067363e+00
-7.477999e+00
-1.216935e+01
-1.711571e+01
-2.228932e+01
-2.766037e+01
-3.319697e+01
-3.886521e+01
-4.462909e+01
-5.045056e+01
-5.628954e+01
-6.210387e+01
-6.784933e+01
-7.347965e+01
-7.894652e+01
-8.419955e+01
-8.918630e+01
-9.385228e+01
-9.814094e+01
-1.019937e+02
-1.053498e+02
0.000000e+00
0.000000e+00
2.258298e+01
2.185662e+01
2.065027e+01
1.897031e+01
1.682568e+01
1.422786e+01
1.119090e+01
7.731378e+00
3.868448e+00
-3.761955e-01
-4.978304e+00
-9.911075e+00
-1.514515e+01
-2.064864e+01
-2.638706e+01
-3.232341e+01
-3.841812e+01
-4.462909e+01
-5.091163e+01
-5.721852e+01
-6.349999e+01
-6.970372e+01
-7.577481e+01
-8.165585e+01
-8.728684e+01
-9.260524e+01
-9.754597e+01
-1.020414e+02
-1.060213e+02
-1.094129e+02
-1.121410e+02
0.000000e+00
0.000000e+00
2.353314e+01
2.272296e+01
2.137779e+01
1.950531e+01
1.711629e+01
1.422458e+01
1.084708e+01
7.003784e+00
2.717766e+00
-1.984835e+00
-7.074800e+00
-1.251984e+01
-1.828457e+01
-2.433057e+01
-3.061630e+01
-3.709717e+01
-4.372551e+01
-5.045056e+01
-5.721852e+01
-6.397247e+01
-7.065245e+01
-7.719541e+01
-8.353521e+01
-8.960266e+01
-9.532548e+01
-1.006283e+02
-1.054328e+02
-1.096573e+02
-1.132173e+02
-1.160252e+02
-1.179902e+02
0.000000e+00
0.000000e+00
2.422105e+01
2.332826e+01
2.184631e+01
1.978427e+01
1.715483e+01
1.397430e+01
1.026263e+01
6.043375e+00
1.343730e+00
-3.805489e+00
-9.369840e+00
-1.531126e+01
-2.158804e+01
-2.815489e+01
-3.496284e+01
-4.195933e+01
-4.908817e+01
-5.628954e+01
-6.349999e+01
-7.065245e+01
-7.767623e+01
-8.449699e+01
-9.103681e+01
-9.721409e+01
-1.029437e+02
-1.081367e+02
-1.127007e+02
-1.165396e+02
-1.195538e+02
-1.216398e+02
-1.226909e+02
0.000000e+00
0.000000e+00
2.460007e+01
2.362669e+01
2.201138e+01
1.976466e+01
1.690124e+01
1.344001e+01
9.404104e+00
4.820824e+00
-2.783127e-01
-5.857587e+00
-1.187708e+01
-1.829267e+01
-2.505602e+01
-3.211462e+01
-3.941174e+01
-4.688644e+01
-5.447360e+01
-6.210387e+01
-6.970372e+01
-7.719541e+01
-8.449699e+01
-9.152234e+01
-9.818109e+01
-1.043787e+02
-1.100164e+02
-1.149913e+02
-1.191962e+02
-1.225197e+02
-1.248464e+02
-1.260563e+02
-1.260256e+02
0.000000e+00
0.000000e+00
2.462128e+01
2.357019e+01
2.182639e+01
1.940189e+01
1.631351e+01
1.258288e+01
8.236421e+00
3.305376e+00
-2.174215e+00
-8.161504e+00
-1.461084e+01
-2.147175e+01
-2.868899e+01
-3.620248e+01
-4.394734e+01
-5.185390e+01
-5.984765e+01
-6.784933e+01
-7.577481e+01
-8.353521e+01
-9.103681e+01
-9.818109e+01
-1.048647e+02
-1.109796e+02
-1.164128e+02
-1.210466e+02
-1.247583e+02
-1.274208e+02
-1.289018e+02
-1.290643e+02
-1.277666e+02
0.000000e+00
0.000000e+00
2.423347e+01
2.310848e+01
2.124256e+01
1.864929e+01
1.534771e+01
1.136227e+01
6.722867e+00
1.464844e+00
-4.371035e+00
-1.073856e+01
-1.758610e+01
-2.485657e+01
-3.248745e+01
-4.041080e+01
-4.855324e+01
-5.683594e+01
-6.517464e+01
-7.347965e+01
-8.165585e+01
-8.960266e+01
-9.721409e+01
-1.043787e+02
-1.109796e+02
-1.168945e+02
-1.219957e+02
-1.261499e+02
-1.292186e+02
-1.310577e+02
-1.315178e+02
-1.304438e+02
-1.276754e+02
0.000000e+00
0.000000e+00
2.338319e+01
2.218903e+01
2.020893e+01
1.745811e+01
1.395791e+01
9.735733e+00
4.825098e+00
-7.343888e-01
-6.897031e+00
-1.361104e+01
-2.081852e+01
-2.845551e+01
-3.645193e+01
-4.473162e+01
-5.321232e+01
-6.180568e+01
-7.041726e+01
-7.894652e+01
-8.728684e+01
-9.532548e+01
-1.029437e+02
-1.100164e+02
-1.164128e+02
-1.219957e+02
-1.266219e+02
-1.301422e+02
-1.324011e+02
-1.332373e+02
-1.324830e+02
-1.299648e+02
-1.255028e+02
0.000000e+00
0.000000e+00
2.201467e+01
2.075708e+01
1.867239e+01
1.577754e+01
1.209626e+01
7.659030e+00
2.503138e+00
-3.327370e+00
-9.781665e+00
-1.680214e+01
-2.432442e+01
-3.227735e+01
-4.058297e+01
-4.915659e+01
-5.790672e+01
-6.673508e+01
-7.553663e+01
-8.419955e+01
-9.260524e+01
-1.006283e+02
-1.081367e+02
-1.149913e+02
-1.210466e+02
-1.261499e+02
-1.301422e+02
-1.328573e+02
-1.341223e+02
-1.337578e+02
-1.315774e+02
-1.273878e+02
-1.209893e+02
0.000000e+00
0.000000e+00
2.006990e+01
1.875563e+01
1.657764e+01
1.355468e+01
9.712933e+00
5.086105e+00
-2.846215e-01
-6.350577e+00
-1.305560e+01
-2.033605e+01
-2.812079e+01
-3.633119e+01
-4.488115e+01
-5.367707e+01
-6.261786e+01
-7.159495e+01
-8.049228e+01
-8.918630e+01
-9.754597e+01
-1.054328e+02
-1.127007e+02
-1.191962e+02
-1.247583e+02
-1.292186e+02
-1.324011e+02
-1.341223e+02
-1.341913e+02
-1.324097e+02
-1.285715e+02
-1.224634e+02
-1.138644e+02
0.000000e+00
0.000000e+00
1.748858e+01
1.612544e+01
1.386724e+01
1.073456e+01
6.756172e+00
1.969099e+00
-3.581420e+00
-9.841919e+00
-1.675071e+01
-2.423787e+01
-3.222527e+01
-4.062653e+01
-4.934706e+01
-5.828404e+01
-6.732644e+01
-7.635498e+01
-8.524217e+01
-9.385228e+01
-1.020414e+02
-1.096573e+02
-1.165396e+02
-1.225197e+02
-1.274208e+02
-1.310577e+02
-1.332373e+02
-1.337578e+02
-1.324097e+02
-1.289749e+02
-1.232273e+02
-1.149323e+02
-1.038474e+02
0.000000e+00
0.000000e+00
1.420814e+01
1.280506e+01
1.048156e+01
7.260141e+00
3.172250e+00
-1.741654e+00
-7.432127e+00
-1.384073e+01
-2.090005e+01
-2.853367e+01
-3.665618e+01
-4.517318e+01
-5.398131e+01
-6.296817e+01
-7.201242e+01
-8.098369e+01
-8.974264e+01
-9.814094e+01
-1.060213e+02
-1.132173e+02
-1.195538e+02
-1.248464e+02
-1.289018e+02
-1.315178e+02
-1.324830e+02
-1.315774e+02
-1.285715e+02
-1.232273e+02
-1.152973e+02
-1.045256e+02
-9.064674e+01
0.000000e+00
0.000000e+00
1.016372e+01
8.730769e+00
6.358813e+00
3.072309e+00
-1.094509e+00
-6.097627e+00
-1.188325e+01
-1.838779e+01
-2.553791e+01
-3.325045e+01
-4.143250e+01
-4.998136e+01
-5.878453e+01
-6.771977e+01
-7.665502e+01
-8.544846e+01
-9.394847e+01
-1.019937e+02
-1.094129e+02
-1.160252e+02
-1.216398e+02
-1.260563e+02
-1.290643e+02
-1.304438e+02
-1.299648e+02
-1.273878e+02
-1.224634e+02
-1.149323e+02
-1.045256e+02
-9.096444e+01
-7.396036e+01
0.000000e+00
0.000000e+00
5.288209e+00
3.836643e+00
1.435032e+00
-1.890126e+00
-6.101734e+00
-1.115210e+01
-1.698291e+01
-2.352530e+01
-3.069975e+01
-3.841618e+01
-4.657389e+01
-5.506159e+01
-6.375740e+01
-7.252882e+01
-8.123276e+01
-8.971553e+01
-9.781285e+01
-1.053498e+02
-1.121410e+02
-1.179902e+02
-1.226909e+02
-1.260256e+02
-1.277666e+02
-1.276754e+02
-1.255028e+02
-1.209893e+02
-1.138644e+02
-1.038474e+02
-9.064674e+01
-7.396036e+01
-5.347559e+01
0.000000e+00
0.000000e+00
0.000000e+00
0.000000e+00
0.000000e+00
0.000000e+00
0.000000e+00
0.000000e+00
0.000000e+00
0.000000e+00
0.000000e+00
0.000000e+00
0.000000e+00
0.000000e+00
0.000000e+00
0.000000e+00
0.000000e+00
0.000000e+00
0.000000e+00
0.000000e+00
0.000000e+00
0.000000e+00
0.000000e+00
0.000000e+00
0.000000e+00
0.000000e+00
0.000000e+00
0.000000e+00
0.000000e+00
0.000000e+00
0.000000e+00
0.000000e+00
0.000000e+00
0.000000e+00

SCALARS rhs float
LOOKUP_TABLE default