# vtk DataFile Version 2.0
Sample rectilinear grid
ASCII
DATASET RECTILINEAR_GRID
DIMENSIONS 65 65 1
X_COORDINATES 65 float
0.000000e+00 1.562500e-02 3.125000e-02 4.687500e-02 6.250000e-02 7.812500e-02 9.375000e-02 1.093750e-01 1.250000e-01 1.406250e-01 1.562500e-01 1.718750e-01 1.875000e-01 2.031250e-01 2.187500e-01 2.343750e-01 2.500000e-01 2.656250e-01 2.812500e-01 2.968750e-01 3.125000e-01 3.281250e-01 3.437500e-01 3.593750e-01 3.750000e-01 3.906250e-01 4.062500e-01 4.218750e-01 4.375000e-01 4.531250e-01 4.687500e-01 4.843750e-01 5.000000e-01 5.156250e-01 5.312500e-01 5.468750e-01 5.625000e-01 5.781250e-01 5.937500e-01 6.093750e-01 6.250000e-01 6.406250e-01 6.562500e-01 6.718750e-01 6.875000e-01 7.031250e-01 7.187500e-01 7.343750e-01 7.500000e-01 7.656250e-01 7.812500e-01 7.968750e-01 8.125000e-01 8.281250e-01 8.437500e-01 8.593750e-01 8.750000e-01 8.906250e-01 9.062500e-01 9.218750e-01 9.375000e-01 9.531250e-01 9.687500e-01 9.843750e-01 1.000000e+00 
Y_COORDINATES 65 float
0.000000e+00 1.562500e-02 3.125000e-02 4.687500e-02 6.250000e-02 7.812500e-02 9.375000e-02 1.093750e-01 1.250000e-01 1.406250e-01 1.562500e-01 1.718750e-01 1.875000e-01 2.031250e-01 2.187500e-01 2.343750e-01 2.500000e-01 2.656250e-01 2.812500e-01 2.968750e-01 3.125000e-01 3.281250e-01 3.437500e-01 3.593750e-01 3.750000e-01 3.906250e-01 4.062500e-01 4.218750e-01 4.375000e-01 4.531250e-01 4.687500e-01 4.843750e-01 5.000000e-01 5.156250e-01 5.312500e-01 5.468750e-01 5.625000e-01 5.781250e-01 5.937500e-01 6.093750e-01 6.250000e-01 6.406250e-01 6.562500e-01 6.718750e-01 6.875000e-01 7.031250e-01 7.187500e-01 7.343750e-01 7.500000e-01 7.656250e-01 7.812500e-01 7.968750e-01 8.125000e-01 8.281250e-01 8.437500e-01 8.593750e-01 8.750000e-01 8.906250e-01 9.062500e-01 9.218750e-01 9.375000e-01 9.531250e-01 9.687500e-01 9.843750e-01 1.000000e+00 
Z_COORDINATES 1 float
0.000000e+00 
POINT_DATA 4225
SCALARS resh float
LOOKUP_TABLE default
0.000000e+00
0.000000e+00
0.000000e+00
0.000000e+00
0.000000e+00
0.000000e+00
0.000000e+00
0.000000e+00
0.000000e+00
0.000000e+00
0.000000e+00
0.000000e+00
0.000000e+00
0.000000e+00
0.000000e+00
0.000000e+00
0.000000e+00
0.000000e+00
0.000000e+00
0.000000e+00
0.000000e+00
0.000000e+00
0.000000e+00
0.000000e+00
0.000000e+00
0.000000e+00
0.000000e+00
0.000000e+00
0.000000e+00
0.000000e+00
0.000000e+00
0.000000e+00
0.000000e+00
0.000000e+00
0.000000e+00
0.000000e+00
0.000000e+00
0.000000e+00
0.000000e+00
0.000000e+00
0.000000e+00
0.000000e+00
0.000000e+00
0.000000e+00
0.000000e+00
0.000000e+00
0.000000e+00
0.000000e+00
0.000000e+00
0.000000e+00
0.000000e+00
0.000000e+00
0.000000e+00
0.000000e+00
0.000000e+00
0.000000e+00
0.000000e+00
0.000000e+00
0.000000e+00
0.000000e+00
0.000000e+00
0.000000e+00
0.000000e+00
0.000000e+00
0.000000e+00
0.000000e+00
5.116524e-15
1.477876e-14
2.073911e-14
3.645105e-14
4.160577e-14
6.980054e-14
7.450447e-14
1.116425e-13
1.089869e-13
1.636937e-13
1.590965e-13
2.104902e-13
1.864003e-13
2.586512e-13
2.409891e-13
2.890677e-13
2.399409e-13
3.044905e-13
2.642872e-13
2.922919e-13
2.091122e-13
2.264950e-13
1.272408e-13
1.163336e-13
-1.569582e-14
-6.210608e-14
-2.319233e-13
-2.549054e-13
-4.085273e-13
-4.609290e-13
-6.555952e-13
-6.392043e-13
-7.765361e-13
-7.685895e-13
-9.335743e-13
-8.669938e-13
-9.832781e-13
-9.133200e-13
-1.039570e-12
-9.592690e-13
-1.070071e-12
-9.680556e-13
-1.052497e-12
-9.760566e-13
-1.064594e-12
-9.332705e-13
-9.483862e-13
-8.589171e-13
-8.882278e-13
-7.285357e-13
-6.678829e-13
-5.567362e-13
-5.290196e-13
-3.832623e-13
-3.100262e-13
-2.135645e-13
-1.835557e-13
-1.006084e-13
-7.307237e-14
-2.785203e-14
-2.361719e-14
-4.827556e-15
-6.857003e-15
0.000000e+00
0.000000e+00
1.058085e-14
2.062200e-14
4.342577e-14
5.133656e-14
8.906983e-14
9.818266e-14
1.609993e-13
1.545879e-13
2.308300e-13
2.216561e-13
3.271739e-13
2.725342e-13
3.606959e-13
3.192921e-13
4.446691e-13
3.386044e-13
4.126281e-13
3.486982e-13
4.753160e-13
3.607364e-13
4.416623e-13
3.593547e-13
4.792199e-13
3.902225e-13
5.141279e-13
4.071432e-13
5.281296e-13
4.746137e-13
6.755028e-13
5.341261e-13
6.756871e-13
6.031002e-13
8.476942e-13
6.721363e-13
8.396999e-13
7.031702e-13
9.321641e-13
7.401420e-13
9.210075e-13
7.172156e-13
8.850346e-13
7.046542e-13
8.788066e-13
6.373410e-13
7.252283e-13
5.796122e-13
7.256276e-13
4.851074e-13
4.952301e-13
3.956687e-13
5.014500e-13
3.211970e-13
3.067289e-13
2.418230e-13
3.084194e-13
2.045112e-13
2.056169e-13
1.485038e-13
1.718121e-13
1.103654e-13
1.046153e-13
5.276675e-14
2.957917e-14
0.000000e+00
0.000000e+00
1.066391e-14
3.395000e-14
4.724875e-14
8.603384e-14
9.549658e-14
1.700031e-13
1.767318e-13
2.688691e-13
2.439628e-13
3.859422e-13
3.535943e-13
4.679426e-13
3.584332e-13
5.382110e-13
4.582283e-13
5.543499e-13
3.766956e-13
5.654443e-13
4.797244e-13
6.029099e-13
4.523431e-13
6.654914e-13
6.107916e-13
8.446737e-13
8.006950e-13
1.061574e-12
1.029696e-12
1.415275e-12
1.457622e-12
1.765643e-12
1.673604e-12
2.113354e-12
2.096362e-12
2.409074e-12
2.212865e-12
2.586476e-12
2.426206e-12
2.719644e-12
2.460361e-12
2.711560e-12
2.425955e-12
2.684623e-12
2.423084e-12
2.528437e-12
2.158386e-12
2.339446e-12
2.092135e-12
2.032322e-12
1.619156e-12
1.680770e-12
1.464371e-12
1.325534e-12
9.762418e-13
9.626443e-13
7.964003e-13
7.048208e-13
4.876637e-13
4.610154e-13
3.380560e-13
2.965537e-13
1.824357e-13
1.340157e-13
4.996480e-14
0.000000e+00
0.000000e+00
1.698757e-14
3.366343e-14
7.245703e-14
8.762721e-14
1.556697e-13
1.769121e-13
2.951024e-13
2.841221e-13
4.249151e-13
4.196784e-13
6.268316e-13
5.193688e-13
6.770623e-13
6.197058e-13
8.716658e-13
6.569716e-13
7.736600e-13
6.787736e-13
9.319045e-13
6.941254e-13
8.072073e-13
6.744652e-13
9.002388e-13
7.118971e-13
8.936596e-13
7.061519e-13
9.125489e-13
8.050888e-13
1.132644e-12
8.805601e-13
1.112811e-12
9.889610e-13
1.406127e-12
1.099391e-12
1.379143e-12
1.146489e-12
1.537237e-12
1.211644e-12
1.521554e-12
1.162290e-12
1.433409e-12
1.138410e-12
1.442589e-12
1.007691e-12
1.125415e-12
9.021953e-13
1.164612e-12
7.305659e-13
7.083593e-13
5.746497e-13
7.741213e-13
4.587570e-13
4.075346e-13
3.328318e-13
4.667890e-13
2.966323e-13
2.919821e-13
2.159210e-13
2.686992e-13
1.711963e-13
1.631532e-13
8.111894e-14
4.598316e-14
0.000000e+00
0.000000e+00
1.531517e-14
4.568919e-14
6.687786e-14
1.233917e-13
1.462071e-13
2.619108e-13
2.879325e-13
4.294366e-13
4.094783e-13
6.492544e-13
6.394348e-13
8.140359e-13
6.689698e-13
9.884510e-13
9.309570e-13
1.053993e-12
7.833739e-13
1.093053e-12
1.001915e-12
1.081024e-12
7.569915e-13
9.745705e-13
7.955945e-13
8.828394e-13
5.613291e-13
6.653298e-13
3.569020e-13
5.627600e-13
2.987890e-13
4.145226e-13
-2.280585e-15
3.444854e-13
8.644125e-14
3.237107e-13
-1.225932e-13
2.700787e-13
-6.138396e-14
2.911920e-13
-1.231978e-13
1.821940e-13
-2.546800e-13
1.430371e-13
-1.806447e-13
-1.745718e-14
-4.964160e-13
-9.363798e-14
-2.608470e-13
-2.106983e-13
-6.162664e-13
-2.489241e-13
-2.378877e-13
-1.896916e-13
-4.196255e-13
-1.358031e-13
-6.612694e-14
2.588648e-14
-7.699785e-14
7.570693e-14
7.059007e-14
1.259877e-13
5.798177e-14
6.754629e-14
1.596412e-14
0.000000e+00
0.000000e+00
1.837209e-14
3.590774e-14
7.705033e-14
9.927144e-14
1.814220e-13
2.159608e-13
3.650593e-13
3.472016e-13
5.155382e-13
5.258668e-13
7.991602e-13
6.291093e-13
7.895937e-13
7.491668e-13
1.088767e-12
7.536678e-13
8.199097e-13
7.589351e-13
1.109320e-12
7.511651e-13
7.982541e-13
7.128754e-13
1.035905e-12
7.784543e-13
9.388605e-13
7.823457e-13
1.077283e-12
9.610416e-13
1.351739e-12
1.085875e-12
1.399241e-12
1.265565e-12
1.792078e-12
1.430193e-12
1.793684e-12
1.498986e-12
1.985240e-12
1.597107e-12
2.005460e-12
1.523298e-12
1.836221e-12
1.503445e-12
1.921113e-12
1.324685e-12
1.422013e-12
1.195832e-12
1.570825e-12
9.656177e-13
8.662429e-13
7.532355e-13
1.039463e-12
5.976154e-13
4.658636e-13
4.142251e-13
6.026464e-13
3.709377e-13
3.270715e-13
2.564476e-13
3.328063e-13
2.087354e-13
1.866904e-13
9.478106e-14
5.705794e-14
0.000000e+00
0.000000e+00
1.457523e-14
3.874286e-14
5.725381e-14
1.142134e-13
1.392861e-13
2.684833e-13
2.940956e-13
4.350534e-13
3.818696e-13
6.658508e-13
6.400762e-13
7.729732e-13
5.139760e-13
9.002073e-13
8.280980e-13
8.494248e-13
4.147692e-13
8.265079e-13
7.972832e-13
8.089641e-13
4.063088e-13
8.252429e-13
8.628030e-13
1.056980e-12
8.593161e-13
1.286555e-12
1.317232e-12
1.812190e-12
1.812263e-12
2.271555e-12
2.144281e-12
2.781452e-12
2.724107e-12
3.201457e-12
2.889800e-12
3.433287e-12
3.145803e-12
3.638342e-12
3.259215e-12
3.574199e-12
3.059135e-12
3.544898e-12
3.225191e-12
3.273029e-12
2.607755e-12
3.014151e-12
2.785642e-12
2.561748e-12
1.842641e-12
2.067840e-12
1.929811e-12
1.618282e-12
1.050303e-12
1.127205e-12
1.040015e-12
8.606545e-13
5.355368e-13
5.483264e-13
4.505109e-13
3.815546e-13
2.177564e-13
1.659986e-13
6.956351e-14
0.000000e+00
0.000000e+00
1.921643e-14
3.262792e-14
6.904743e-14
9.977231e-14
1.943199e-13
2.464127e-13
4.257013e-13
4.050250e-13
6.000582e-13
6.497358e-13
1.005744e-12
7.724982e-13
9.278751e-13
9.495869e-13
1.411553e-12
9.378958e-13
9.232425e-13
9.511207e-13
1.435838e-12
9.129327e-13
8.246738e-13
8.354676e-13
1.270590e-12
8.816838e-13
9.092562e-13
8.256492e-13
1.189005e-12
1.009850e-12
1.324039e-12
1.099626e-12
1.447202e-12
1.288898e-12
1.780795e-12
1.450089e-12
1.838838e-12
1.508551e-12
1.949633e-12
1.612189e-12
2.056221e-12
1.500889e-12
1.716856e-12
1.472235e-12
1.941602e-12
1.244667e-12
1.194012e-12
1.090878e-12
1.526849e-12
8.193713e-13
5.442540e-13
5.712981e-13
9.153438e-13
4.228666e-13
1.544567e-13
2.303740e-13
4.684740e-13
2.417959e-13
1.351732e-13
1.476403e-13
2.588875e-13
1.531032e-13
1.165951e-13
6.272311e-14
4.822561e-14
0.000000e+00
0.000000e+00
2.014873e-14
3.538797e-14
5.530854e-14
1.216485e-13
1.724565e-13
3.303217e-13
3.941983e-13
5.657937e-13
5.449014e-13
9.357792e-13
9.961690e-13
1.143631e-12
8.771166e-13
1.435961e-12
1.499480e-12
1.450755e-12
9.256936e-13
1.492189e-12
1.597580e-12
1.398923e-12
7.784587e-13
1.201086e-12
1.248648e-12
1.067492e-12
5.099797e-13
7.306148e-13
6.045811e-13
6.560445e-13
2.711019e-13
4.517222e-13
1.330469e-13
4.156314e-13
9.268906e-14
3.991382e-13
8.788846e-15
3.242981e-13
-1.020335e-13
3.572340e-13
2.730537e-14
1.589394e-13
-4.446934e-13
9.456735e-14
-6.936847e-14
-1.783206e-13
-8.758183e-13
-3.158227e-13
-2.522681e-13
-5.307103e-13
-1.152408e-12
-6.575787e-13
-3.706119e-13
-5.885123e-13
-9.338099e-13
-5.588032e-13
-2.412587e-13
-2.754340e-13
-3.936163e-13
-1.767851e-13
-3.075454e-14
-4.575847e-15
-5.912991e-14
-6.856127e-15
8.009916e-15
0.000000e+00
0.000000e+00
1.949973e-14
1.949857e-14
3.503075e-14
7.531813e-14
1.686744e-13
2.306595e-13
4.078726e-13
3.779852e-13
5.582500e-13
6.441368e-13
1.029565e-12
7.151005e-13
7.864358e-13
8.893965e-13
1.414498e-12
7.888034e-13
5.934351e-13
7.724763e-13
1.354667e-12
6.737678e-13
3.562532e-13
5.705482e-13
1.123520e-12
6.257523e-13
4.462901e-13
5.649122e-13
1.037277e-12
8.053962e-13
9.702880e-13
9.050701e-13
1.330508e-12
1.132197e-12
1.503209e-12
1.301840e-12
1.746104e-12
1.350138e-12
1.648611e-12
1.452860e-12
1.955347e-12
1.302285e-12
1.330729e-12
1.268925e-12
1.819235e-12
1.015923e-12
7.517759e-13
8.597850e-13
1.389246e-12
5.849257e-13
9.144923e-14
3.232477e-13
7.466585e-13
2.087817e-13
-2.283047e-13
1.394522e-14
3.081471e-13
8.576355e-14
-1.110395e-13
1.178479e-14
1.640405e-13
7.690027e-14
1.165435e-14
1.884435e-14
4.301012e-14
0.000000e+00
0.000000e+00
2.065782e-14
5.128332e-15
2.276571e-15
5.473139e-14
1.038915e-13
2.330220e-13
2.704025e-13
3.878748e-13
3.072095e-13
6.794009e-13
6.955106e-13
6.912430e-13
2.572547e-13
8.206501e-13
8.738884e-13
5.817837e-13
-1.599978e-13
4.900074e-13
7.317696e-13
3.348077e-13
-3.910859e-13
2.864617e-13
7.024575e-13
5.262554e-13
8.376378e-14
7.394891e-13
1.146459e-12
1.379957e-12
1.228677e-12
1.864188e-12
2.027013e-12
2.454664e-12
2.272991e-12
2.896339e-12
2.819103e-12
3.104143e-12
2.654917e-12
3.303668e-12
3.190155e-12
3.147885e-12
2.423220e-12
3.097245e-12
3.131111e-12
2.763158e-12
1.874125e-12
2.484118e-12
2.664884e-12
2.013927e-12
1.094505e-12
1.473530e-12
1.743525e-12
1.093230e-12
4.262112e-13
5.963409e-13
8.398019e-13
4.717253e-13
1.389704e-13
2.153757e-13
3.279092e-13
1.925708e-13
4.704608e-14
5.921283e-14
7.219352e-14
0.000000e+00
0.000000e+00
2.911440e-14
9.815650e-15
7.419835e-17
6.142338e-14
1.694821e-13
2.426835e-13
4.267186e-13
4.077266e-13
6.070043e-13
7.425470e-13
1.190479e-12
8.186121e-13
8.571715e-13
1.056408e-12
1.694842e-12
9.255909e-13
6.033180e-13
9.296130e-13
1.659823e-12
7.926358e-13
2.833823e-13
6.786317e-13
1.398289e-12
7.202083e-13
3.417742e-13
6.454489e-13
1.288635e-12
8.999428e-13
8.913192e-13
9.953154e-13
1.583746e-12
1.229784e-12
1.434081e-12
1.397090e-12
1.998389e-12
1.422681e-12
1.522376e-12
1.515367e-12
2.177973e-12
1.323310e-12
1.104618e-12
1.266578e-12
1.980054e-12
9.825809e-13
4.483625e-13
7.859610e-13
1.456506e-12
4.871857e-13
-2.734833e-13
1.607716e-13
6.776107e-13
4.988807e-14
-5.907477e-13
-1.845499e-13
1.689282e-13
-7.052980e-14
-3.785004e-13
-1.358532e-13
6.450972e-14
-1.066715e-14
-1.149286e-13
-3.182966e-14
4.345851e-14
0.000000e+00
0.000000e+00
4.588266e-14
7.753917e-15
-1.968474e-15
8.215435e-14
1.908093e-13
3.468791e-13
4.376952e-13
6.255756e-13
6.391644e-13
1.143155e-12
1.293070e-12
1.356928e-12
9.952180e-13
1.770805e-12
2.020966e-12
1.702689e-12
9.336179e-13
1.769056e-12
2.184603e-12
1.582082e-12
6.467281e-13
1.354609e-12
1.795189e-12
1.192768e-12
3.261333e-13
8.329774e-13
1.110589e-12
7.942701e-13
1.279252e-13
5.922190e-13
6.395509e-13
5.720607e-13
-4.011168e-14
5.562023e-13
5.217974e-13
4.224518e-13
-3.369596e-13
4.275762e-13
5.070154e-13
1.236244e-13
-8.482320e-13
-2.285268e-15
3.163537e-13
-3.494991e-13
-1.406603e-12
-5.797402e-13
-2.758960e-14
-8.463578e-13
-1.773537e-12
-1.114332e-12
-3.886564e-13
-1.025587e-12
-1.533739e-12
-1.070147e-12
-4.045704e-13
-6.768101e-13
-8.304937e-13
-5.427617e-13
-1.586460e-13
-2.227445e-13
-2.685114e-13
-1.305473e-13
2.267555e-14
0.000000e+00
0.000000e+00
4.658659e-14
-9.049367e-15
-6.345545e-14
2.596287e-14
1.496997e-13
2.080077e-13
3.620371e-13
3.559776e-13
5.591785e-13
7.028343e-13
1.147110e-12
7.233908e-13
7.026287e-13
9.538439e-13
1.620921e-12
7.453309e-13
2.872359e-13
7.359556e-13
1.537633e-12
5.528866e-13
-1.321544e-13
4.455784e-13
1.279801e-12
4.784127e-13
-8.989826e-14
4.268385e-13
1.221480e-12
6.816539e-13
4.668018e-13
7.992548e-13
1.569231e-12
1.017891e-12
9.780104e-13
1.192020e-12
1.995037e-12
1.170801e-12
9.614361e-13
1.241652e-12
2.114713e-12
9.922802e-13
4.117766e-13
8.947411e-13
1.818384e-12
5.936486e-13
-2.911708e-13
3.649108e-13
1.223515e-12
9.889561e-14
-9.566404e-13
-2.464867e-13
4.096019e-13
-2.757976e-13
-1.111174e-12
-4.932451e-13
-4.774375e-14
-2.847195e-13
-6.943946e-13
-3.110997e-13
-4.679402e-14
-1.081139e-13
-2.513203e-13
-8.507318e-14
4.827792e-14
0.000000e+00
0.000000e+00
6.183464e-14
-4.063801e-14
-1.124782e-13
-2.803273e-14
8.157777e-14
1.571375e-13
1.533140e-13
2.894151e-13
2.241101e-13
6.219155e-13
6.190283e-13
5.308769e-13
-1.849405e-14
6.500259e-13
7.660210e-13
2.469634e-13
-7.119722e-13
1.180771e-13
5.617178e-13
-1.427268e-13
-1.117245e-12
-1.836832e-13
5.453468e-13
3.361250e-14
-6.851113e-13
3.004698e-13
1.075316e-12
9.437049e-13
4.514174e-13
1.485858e-12
2.048485e-12
2.042053e-12
1.424121e-12
2.502986e-12
2.873758e-12
2.602851e-12
1.620811e-12
2.749942e-12
3.165562e-12
2.460672e-12
1.174592e-12
2.313046e-12
2.953262e-12
1.938077e-12
5.632484e-13
1.579733e-12
2.362861e-12
1.168228e-12
-9.605861e-14
5.684083e-13
1.368072e-12
3.509671e-13
-4.665928e-13
-1.176249e-13
5.267185e-13
-3.758273e-14
-3.975291e-13
-2.031744e-13
1.691184e-13
-4.584169e-14
-1.878009e-13
-7.003040e-14
9.298344e-14
0.000000e+00
0.000000e+00
9.078455e-14
-1.146924e-14
-1.121709e-13
3.151775e-14
2.155512e-13
2.448575e-13
3.847750e-13
4.305313e-13
7.179199e-13
8.417526e-13
1.312217e-12
8.863618e-13
9.231457e-13
1.156957e-12
1.869112e-12
9.340268e-13
4.806888e-13
9.284592e-13
1.789306e-12
7.157499e-13
4.183491e-15
6.241001e-13
1.559731e-12
6.369416e-13
1.645452e-14
6.427295e-13
1.614239e-12
8.847806e-13
5.609964e-13
1.075429e-12
2.105656e-12
1.269405e-12
1.031882e-12
1.490665e-12
2.620056e-12
1.424063e-12
9.217963e-13
1.498691e-12
2.732789e-12
1.215372e-12
2.883445e-13
1.087459e-12
2.359083e-12
7.905289e-13
-4.255480e-13
5.006204e-13
1.629709e-12
2.364599e-13
-1.108302e-12
-2.128478e-13
6.015157e-13
-2.462964e-13
-1.285542e-12
-5.478223e-13
-2.086339e-14
-3.289664e-13
-8.505245e-13
-3.838992e-13
-6.774139e-14
-1.507928e-13
-3.400542e-13
-1.146590e-13
6.606656e-14
0.000000e+00
0.000000e+00
1.358018e-13
-5.438716e-15
-1.008945e-13
8.162766e-14
3.136481e-13
4.118409e-13
4.517727e-13
7.746422e-13
9.017781e-13
1.431887e-12
1.538914e-12
1.691980e-12
1.341280e-12
2.184005e-12
2.410122e-12
2.073911e-12
1.223385e-12
2.143066e-12
2.591083e-12
1.891527e-12
8.337871e-13
1.698259e-12
2.261672e-12
1.496389e-12
4.473498e-13
1.257888e-12
1.781708e-12
1.189000e-12
2.045613e-13
1.140289e-12
1.573650e-12
1.062099e-12
-5.458756e-14
1.147565e-12
1.634702e-12
9.075183e-13
-5.177577e-13
9.126209e-13
1.637568e-12
5.168877e-13
-1.160609e-12
3.078559e-13
1.324066e-12
-4.405838e-14
-1.719904e-12
-4.164771e-13
7.390369e-13
-6.806756e-13
-2.085940e-12
-1.166926e-12
1.486732e-17
-1.068038e-12
-1.851190e-12
-1.270952e-12
-3.139380e-13
-8.317233e-13
-1.099382e-12
-7.391780e-13
-1.674524e-13
-3.371922e-13
-4.219575e-13
-2.043522e-13
6.436354e-14
0.000000e+00
0.000000e+00
1.403213e-13
-3.966415e-14
-2.266665e-13
-1.533946e-14
2.231222e-13
1.849360e-13
2.459221e-13
3.704782e-13
7.324325e-13
7.865626e-13
1.191130e-12
8.243303e-13
9.288848e-13
1.090986e-12
1.740195e-12
8.603658e-13
4.660578e-13
8.587020e-13
1.662464e-12
6.394584e-13
-2.677857e-14
5.731301e-13
1.476134e-12
5.401706e-13
-1.001280e-13
5.788945e-13
1.584348e-12
7.256697e-13
2.644655e-13
9.540626e-13
2.132802e-12
1.049789e-12
5.476912e-13
1.311143e-12
2.705751e-12
1.165792e-12
2.780270e-13
1.235355e-12
2.785886e-12
8.939980e-13
-4.870655e-13
6.990986e-13
2.263604e-12
3.956183e-13
-1.231928e-12
3.587690e-14
1.393237e-12
-1.725081e-13
-1.816686e-12
-6.463378e-13
3.267673e-13
-5.651511e-13
-1.766506e-12
-8.340002e-13
-2.061217e-13
-5.048950e-13
-1.098325e-12
-5.185204e-13
-1.432959e-13
-2.169617e-13
-4.335104e-13
-1.498495e-13
7.307968e-14
0.000000e+00
0.000000e+00
1.644155e-13
-1.067324e-13
-3.268072e-13
-1.362885e-13
1.090523e-13
2.675487e-14
-1.135353e-13
1.703339e-13
2.475542e-13
5.266991e-13
3.687851e-13
4.271079e-13
-2.241231e-14
5.364873e-13
5.013666e-13
1.083521e-13
-7.534895e-13
-2.249750e-14
3.049563e-13
-3.056101e-13
-1.195222e-12
-2.946247e-13
3.727896e-13
-1.697949e-13
-9.272354e-13
1.774035e-13
1.019816e-12
6.299688e-13
-1.209660e-13
1.263346e-12
2.124080e-12
1.619797e-12
5.045829e-13
2.169126e-12
3.076840e-12
2.100208e-12
4.107729e-13
2.231667e-12
3.335052e-12
1.814198e-12
-2.482465e-13
1.520904e-12
2.880983e-12
1.134010e-12
-8.801463e-13
6.236072e-13
2.043648e-12
3.201728e-13
-1.337872e-12
-3.488191e-13
9.613374e-13
-3.405562e-13
-1.302863e-12
-7.493278e-13
2.431567e-13
-4.418536e-13
-8.305688e-13
-5.161480e-13
5.401096e-14
-2.067189e-13
-3.554525e-13
-1.547452e-13
1.123057e-13
0.000000e+00
0.000000e+00
2.067436e-13
-5.926224e-14
-3.415013e-13
-3.856982e-14
2.747982e-13
1.596759e-13
1.264576e-13
3.698327e-13
8.312141e-13
7.910932e-13
1.085273e-12
8.312710e-13
1.025577e-12
1.059207e-12
1.556621e-12
8.002696e-13
4.958333e-13
7.578728e-13
1.396993e-12
5.125798e-13
-4.808809e-14
4.720386e-13
1.262142e-12
4.205427e-13
-1.438671e-13
5.593175e-13
1.562656e-12
6.754212e-13
1.808008e-13
1.029450e-12
2.349457e-12
1.084984e-12
4.097130e-13
1.450839e-12
3.124472e-12
1.271692e-12
9.302999e-14
1.389604e-12
3.299565e-12
1.054047e-12
-6.603709e-13
8.503582e-13
2.759191e-12
5.975080e-13
-1.319419e-12
1.816105e-13
1.777046e-12
1.678067e-15
-1.864886e-12
-5.679444e-13
5.222941e-13
-4.855678e-13
-1.822136e-12
-8.281780e-13
-1.505015e-13
-4.986835e-13
-1.155717e-12
-5.420459e-13
-1.404754e-13
-2.285447e-13
-4.667005e-13
-1.605970e-13
8.200042e-14
0.000000e+00
0.000000e+00
2.706057e-13
-6.248558e-14
-3.120065e-13
3.527961e-15
4.291420e-13
3.206537e-13
2.273391e-13
7.291131e-13
1.091561e-12
1.395746e-12
1.325939e-12
1.654953e-12
1.524652e-12
2.067095e-12
2.064812e-12
1.897562e-12
1.298362e-12
1.889093e-12
2.110888e-12
1.589830e-12
8.168234e-13
1.455655e-12
1.876521e-12
1.213430e-12
3.682722e-13
1.175172e-12
1.743823e-12
1.027252e-12
2.494280e-14
1.227356e-12
1.971542e-12
1.057469e-12
-3.597329e-13
1.362136e-12
2.404938e-12
1.052832e-12
-9.225869e-13
1.160079e-12
2.588756e-12
7.662446e-13
-1.543000e-12
5.234277e-13
2.239966e-12
2.635337e-13
-1.940468e-12
-2.386898e-13
1.444472e-12
-4.423142e-13
-2.209559e-12
-1.120812e-12
3.690907e-13
-9.957509e-13
-1.960318e-12
-1.327500e-12
-1.985654e-13
-8.635268e-13
-1.200504e-12
-8.143795e-13
-1.527410e-13
-3.747928e-13
-4.801774e-13
-2.320469e-13
8.335236e-14
0.000000e+00
0.000000e+00
2.431594e-13
-1.260604e-13
-5.382403e-13
-1.584445e-13
1.788511e-13
-2.151434e-14
-2.074689e-13
1.633959e-13
6.684274e-13
5.481302e-13
6.722437e-13
5.935866e-13
8.617614e-13
8.149946e-13
1.124444e-12
5.965917e-13
4.072424e-13
5.825359e-13
1.020051e-12
3.642254e-13
-7.768818e-14
3.567009e-13
9.493247e-13
2.537571e-13
-2.676384e-13
4.055791e-13
1.259870e-12
3.965040e-13
-1.860400e-13
7.630895e-13
2.046401e-12
7.099498e-13
-1.608411e-13
1.122302e-12
2.896630e-12
8.951789e-13
-5.584538e-13
1.041401e-12
3.121472e-12
6.895931e-13
-1.343039e-12
4.409795e-13
2.494585e-12
2.006228e-13
-1.985491e-12
-2.720274e-13
1.410096e-12
-3.908690e-13
-2.415524e-12
-9.562381e-13
1.819108e-13
-7.688236e-13
-2.156165e-12
-1.052313e-12
-3.469507e-13
-6.347259e-13
-1.295201e-12
-6.282245e-13
-2.138999e-13
-2.700178e-13
-5.008128e-13
-1.783670e-13
7.006315e-14
0.000000e+00
0.000000e+00
2.481852e-13
-2.607220e-13
-6.667033e-13
-4.136392e-13
-1.512092e-14
-3.825462e-13
-6.771452e-13
-2.952733e-13
2.299144e-14
-1.925373e-14
-3.254487e-13
-1.212551e-13
-2.348185e-13
-4.912706e-14
-2.272925e-13
-4.125339e-13
-8.317671e-13
-5.037220e-13
-3.372323e-13
-7.362066e-13
-1.181477e-12
-6.539073e-13
-1.561333e-13
-6.271645e-13
-1.091126e-12
-2.397076e-13
5.349576e-13
-3.762027e-14
-7.161594e-13
6.321217e-13
1.673033e-12
7.757390e-13
-4.625265e-13
1.430083e-12
2.766329e-12
1.272478e-12
-7.246934e-13
1.467304e-12
3.105234e-12
1.023311e-12
-1.442402e-12
6.431351e-13
2.500187e-12
2.925836e-13
-2.024865e-12
-3.324053e-13
1.478103e-12
-5.124017e-13
-2.267130e-12
-1.180687e-12
4.176478e-13
-9.630188e-13
-1.863961e-12
-1.249471e-12
-8.018688e-14
-7.573655e-13
-1.067009e-12
-7.204822e-13
-7.151752e-14
-3.101877e-13
-4.147093e-13
-1.997948e-13
9.064828e-14
0.000000e+00
0.000000e+00
2.730471e-13
-1.592249e-13
-6.563611e-13
-2.144768e-13
1.385476e-13
-1.107327e-13
-4.132350e-13
5.347415e-14
5.576671e-13
3.744595e-13
3.152254e-13
3.633627e-13
6.054510e-13
4.771175e-13
5.306058e-13
1.929930e-13
-1.980853e-15
1.072316e-13
2.730251e-13
-1.378599e-13
-5.443021e-13
-1.294201e-13
2.334880e-13
-2.286151e-13
-7.191286e-13
-4.002942e-15
6.876637e-13
-9.921394e-15
-6.210707e-13
4.405081e-13
1.638681e-12
4.042758e-13
-5.435918e-13
8.984714e-13
2.662908e-12
7.035343e-13
-8.496064e-13
9.090614e-13
3.027071e-12
6.024284e-13
-1.527003e-12
3.770786e-13
2.464472e-12
1.895950e-13
-2.062164e-12
-2.958973e-13
1.367265e-12
-3.942973e-13
-2.451534e-12
-9.937016e-13
8.320918e-14
-8.143109e-13
-2.199726e-12
-1.108029e-12
-4.556339e-13
-6.915591e-13
-1.329717e-12
-6.693216e-13
-2.842020e-13
-3.010343e-13
-5.059455e-13
-1.912185e-13
4.237400e-14
0.000000e+00
0.000000e+00
3.379682e-13
-1.586409e-13
-5.110895e-13
-1.675287e-13
3.957321e-13
5.503794e-14
-1.101171e-13
3.966425e-13
9.553862e-13
9.123727e-13
7.413842e-13
1.041388e-12
1.169127e-12
1.226616e-12
1.093311e-12
9.289268e-13
7.097015e-13
7.812576e-13
8.844422e-13
4.362439e-13
1.322459e-13
3.391797e-13
7.027375e-13
1.001659e-13
-3.065647e-13
2.029603e-13
8.262291e-13
4.162290e-14
-6.353737e-13
3.991293e-13
1.351361e-12
2.571201e-13
-9.446046e-13
7.366229e-13
2.086428e-12
5.090513e-13
-1.366160e-12
7.561780e-13
2.502774e-12
4.635356e-13
-1.815288e-12
2.691380e-13
2.244182e-12
1.132417e-13
-2.041083e-12
-4.184813e-13
1.402626e-12
-5.739387e-13
-2.243009e-12
-1.307408e-12
2.178584e-13
-1.174032e-12
-2.007856e-12
-1.503070e-12
-3.777697e-13
-1.020349e-12
-1.241857e-12
-9.242228e-13
-2.741760e-13
-4.525937e-13
-4.792263e-13
-2.647255e-13
3.050185e-14
0.000000e+00
0.000000e+00
2.332563e-13
-2.453768e-13
-8.250817e-13
-3.839935e-13
-1.032508e-13
-3.628071e-13
-7.773048e-13
-2.620396e-13
1.591916e-13
-3.759503e-16
-1.907827e-13
-1.762556e-14
1.712948e-13
8.937851e-14
-2.999163e-15
-1.413693e-13
-3.383382e-13
-1.981877e-13
-2.020061e-13
-4.062122e-13
-8.028509e-13
-3.875390e-13
-2.165464e-13
-5.080676e-13
-1.021899e-12
-3.174208e-13
1.647210e-13
-3.843500e-13
-1.057589e-12
6.761243e-15
9.901512e-13
-5.214997e-14
-1.028946e-12
4.242577e-13
1.987540e-12
2.647113e-13
-1.251720e-12
4.958595e-13
2.420665e-12
2.228126e-13
-1.848750e-12
1.205777e-14
1.901806e-12
-1.659084e-13
-2.357459e-12
-6.360796e-13
8.459370e-13
-7.104276e-13
-2.689489e-12
-1.252869e-12
-3.124848e-13
-1.030750e-12
-2.331569e-12
-1.249537e-12
-6.871306e-13
-8.021951e-13
-1.373529e-12
-7.281967e-13
-3.992077e-13
-3.447481e-13
-4.997653e-13
-2.072517e-13
-7.163521e-15
0.000000e+00
0.000000e+00
1.905485e-13
-4.568727e-13
-9.402899e-13
-7.995739e-13
-3.923701e-13
-9.542171e-13
-1.259694e-12
-1.016412e-12
-5.935337e-13
-8.881098e-13
-1.131502e-12
-1.032534e-12
-8.870641e-13
-1.012113e-12
-1.080446e-12
-1.289187e-12
-1.307917e-12
-1.339495e-12
-1.099883e-12
-1.497988e-12
-1.524179e-12
-1.388128e-12
-8.754725e-13
-1.398357e-12
-1.510192e-12
-1.069101e-12
-2.971451e-13
-9.895028e-13
-1.355244e-12
-4.341670e-13
6.362485e-13
-3.221419e-13
-1.178829e-12
3.116361e-13
1.669185e-12
2.504846e-13
-1.312279e-12
5.149909e-13
2.100034e-12
1.545000e-13
-1.908978e-12
-1.840935e-13
1.561137e-12
-5.102646e-13
-2.452049e-12
-1.099751e-12
6.095191e-13
-1.233445e-12
-2.609312e-12
-1.784347e-12
-2.466896e-13
-1.476610e-12
-2.047683e-12
-1.601544e-12
-4.754785e-13
-1.032277e-12
-1.117872e-12
-8.774991e-13
-2.741648e-13
-4.218832e-13
-3.901958e-13
-2.435568e-13
-3.607344e-15
0.000000e+00
0.000000e+00
1.909676e-13
-2.680809e-13
-8.494616e-13
-4.387302e-13
-2.312677e-13
-4.521973e-13
-9.020500e-13
-4.107464e-13
-1.195106e-13
-2.345593e-13
-5.226320e-13
-3.365751e-13
-3.116185e-13
-3.423911e-13
-5.841234e-13
-6.306817e-13
-9.581805e-13
-7.499121e-13
-9.150243e-13
-9.624833e-13
-1.440363e-12
-9.453509e-13
-9.279367e-13
-1.031323e-12
-1.592940e-12
-8.296373e-13
-5.124430e-13
-8.370077e-13
-1.513970e-12
-4.513335e-13
3.225900e-13
-4.018626e-13
-1.267188e-12
8.557967e-14
1.376785e-12
4.107277e-14
-1.245763e-12
3.027520e-13
1.905715e-12
7.230035e-14
-1.744226e-12
-1.131527e-13
1.449438e-12
-3.266038e-13
-2.320834e-12
-7.826928e-13
4.149311e-13
-9.145433e-13
-2.760005e-12
-1.429953e-12
-6.952330e-13
-1.237905e-12
-2.442554e-12
-1.406869e-12
-9.708900e-13
-9.509116e-13
-1.445549e-12
-8.236114e-13
-5.699349e-13
-4.160018e-13
-5.035217e-13
-2.375085e-13
-8.200714e-14
0.000000e+00
0.000000e+00
2.654890e-13
-2.316304e-13
-5.385902e-13
-3.330004e-13
1.901495e-13
-2.145142e-13
-2.962234e-13
-2.481645e-14
5.116312e-13
2.860411e-13
2.193620e-13
2.256756e-13
4.079470e-13
1.727156e-13
1.613922e-13
-2.369909e-13
-2.622131e-13
-5.064557e-13
-2.717897e-13
-8.571379e-13
-8.656164e-13
-9.544035e-13
-4.580810e-13
-1.126670e-12
-1.191723e-12
-1.003721e-12
-2.827301e-13
-1.054508e-12
-1.313275e-12
-7.176416e-13
2.424800e-13
-6.374759e-13
-1.240362e-12
-1.286562e-13
1.040098e-12
-1.012034e-13
-1.249834e-12
2.339580e-13
1.597061e-12
4.375855e-14
-1.543057e-12
-8.241340e-14
1.448694e-12
-3.147920e-13
-1.899517e-12
-8.126694e-13
6.611047e-13
-1.081872e-12
-2.297608e-12
-1.749331e-12
-4.299119e-13
-1.661473e-12
-2.146987e-12
-1.882216e-12
-8.596663e-13
-1.369037e-12
-1.331712e-12
-1.158517e-12
-5.710789e-13
-6.249974e-13
-4.639613e-13
-3.412541e-13
-1.102294e-13
0.000000e+00
0.000000e+00
1.081604e-13
-3.245907e-13
-9.046844e-13
-5.624560e-13
-4.719631e-13
-6.371165e-13
-1.108422e-12
-6.622665e-13
-5.189781e-13
-5.350995e-13
-8.556383e-13
-6.495698e-13
-7.579170e-13
-6.634093e-13
-9.465085e-13
-9.163254e-13
-1.340681e-12
-1.028338e-12
-1.258559e-12
-1.216611e-12
-1.773255e-12
-1.212576e-12
-1.286200e-12
-1.281869e-12
-1.897890e-12
-1.123103e-12
-9.459390e-13
-1.097230e-12
-1.769342e-12
-7.962909e-13
-2.631953e-13
-6.723236e-13
-1.384997e-12
-2.513058e-13
6.918456e-13
-2.029673e-13
-1.170665e-12
7.243239e-14
1.281283e-12
-1.137164e-13
-1.566744e-12
-2.285614e-13
9.752230e-13
-4.741381e-13
-2.198023e-12
-8.535016e-13
8.318566e-14
-1.031558e-12
-2.717884e-12
-1.484010e-12
-9.116041e-13
-1.323227e-12
-2.447264e-12
-1.469822e-12
-1.147133e-12
-1.032170e-12
-1.472383e-12
-8.956315e-13
-7.256827e-13
-4.788303e-13
-4.986201e-13
-2.711407e-13
-1.690904e-13
0.000000e+00
0.000000e+00
4.496053e-14
-5.846573e-13
-1.016259e-12
-1.078491e-12
-7.923869e-13
-1.378950e-12
-1.574170e-12
-1.604296e-12
-1.242601e-12
-1.614364e-12
-1.648632e-12
-1.818212e-12
-1.600766e-12
-1.847157e-12
-1.653673e-12
-2.066332e-12
-1.908729e-12
-2.107513e-12
-1.649262e-12
-2.213006e-12
-2.035243e-12
-2.117970e-12
-1.453322e-12
-2.088933e-12
-1.967102e-12
-1.839656e-12
-1.016302e-12
-1.693773e-12
-1.711393e-12
-1.310393e-12
-3.689760e-13
-1.030670e-12
-1.278683e-12
-5.156354e-13
4.556508e-13
-3.576994e-13
-1.081294e-12
-4.097638e-14
9.613438e-13
-3.006388e-13
-1.523491e-12
-4.831418e-13
6.919642e-13
-8.893404e-13
-2.178036e-12
-1.323645e-12
1.915843e-14
-1.561288e-12
-2.492160e-12
-1.979890e-12
-6.200692e-13
-1.727280e-12
-2.024208e-12
-1.799239e-12
-7.730083e-13
-1.249980e-12
-1.134825e-12
-1.068185e-12
-5.407533e-13
-5.789762e-13
-3.589402e-13
-3.282786e-13
-1.642210e-13
0.000000e+00
0.000000e+00
5.439864e-14
-3.360679e-13
-8.870029e-13
-6.022653e-13
-5.989404e-13
-7.232882e-13
-1.212687e-12
-8.247202e-13
-8.297634e-13
-7.918615e-13
-1.185621e-12
-9.851017e-13
-1.253801e-12
-1.071710e-12
-1.443466e-12
-1.345267e-12
-1.888059e-12
-1.467941e-12
-1.780192e-12
-1.631946e-12